ITEM: TIMESTEP
16200
ITEM: NUMBER OF ATOMS
6100
ITEM: BOX BOUNDS ff ff ff
-1.0000000000000000e+03 1.0000000000000000e+03
-1.0000000000000000e+03 1.0000000000000000e+03
-1.0000000000000000e+03 1.0000000000000000e+03
ITEM: ATOMS id type diameter x y z vx vy vz fx fy fz
3 1 7.68 -173.591 -22.8934 -44.1908 0.00707037 0.000658174 0.00165788 15.6285 1.45391 3.66333
10 1 7.68 -56.0035 -113.092 -92.8074 0.00193438 0.00480809 0.00381182 4.27036 10.6329 8.42558
20 1 7.68 -154.984 -37.3378 -89.558 0.00614449 0.00167795 0.00354059 13.5838 3.71065 7.82618
25 1 7.68 -96.2788 -35.8412 -150.493 0.00411378 0.00139274 0.00601109 9.10017 3.07433 13.2868
30 1 7.68 -4.89663 -23.8728 -19.9601 0.000347427 0.00119955 0.000204531 0.776856 2.66047 0.441228
35 1 7.68 -108.944 -74.0788 -10.8089 0.00459568 0.00317649 0.000610662 10.1613 7.02482 1.34918
44 1 7.68 -149.699 -88.7813 -61.3784 0.00573381 0.00366794 0.00256292 12.6725 8.10773 5.66409
57 1 7.68 -47.5641 -112.624 -3.8288 0.00199232 0.00427098 0.000240887 4.4067 9.43407 0.533749
62 1 7.68 -115.259 -26.772 -6.65755 0.00462536 0.000988804 0.000509239 10.223 2.18692 1.12966
67 1 7.68 -27.9343 -69.8258 -126.195 0.000797162 0.00287445 0.00528535 1.75581 6.35379 11.6902
72 1 7.68 -87.1003 -129.141 -81.6911 0.00342202 0.00526172 0.00314864 7.56582 11.6306 6.95494
79 1 7.68 -9.91697 -129.493 -59.2184 0.000244748 0.00525919 0.00252408 0.537888 11.6241 5.58077
93 1 7.68 -162.768 -35.5935 -19.2043 0.00640104 0.001376 0.00101986 14.1482 3.03729 2.25447
122 1 7.68 -74.0856 -76.1945 -62.2594 0.00302548 0.00333673 0.0027118 6.68757 7.38054 6.00153
125 1 7.68 -56.7405 -20.0918 -166.198 0.00221185 0.000990303 0.00683882 4.88529 2.18736 15.1208
127 1 7.68 -79.1098 -31.9387 -13.1815 0.00319647 0.000955462 0.000167019 7.0679 2.10957 0.363973
149 1 7.68 -123.689 -113.278 -68.0531 0.00509199 0.00452027 0.00278927 11.2541 9.9884 6.16475
150 1 7.68 -68.4398 -105.294 -92.878 0.00283192 0.00438589 0.00353005 6.26313 9.69994 7.79879
157 2 8.64 -61.4382 -74.8301 -17.7063 0.00234365 0.00321909 0.000568673 7.37443 10.1356 1.78961
162 2 8.64 -13.6533 -107.397 -149.738 0.00079316 0.00400376 0.00590335 2.49491 12.5918 18.5694
166 2 8.64 -37.7111 -31.6709 -119.025 0.00150129 0.00122947 0.00494696 4.72333 3.86771 15.5759
178 2 8.64 -93.7426 -17.9496 -101.481 0.00374699 0.0011613 0.00437576 11.7904 3.66798 13.7803
187 2 8.64 -32.269 -105.278 -139.619 0.00137324 0.00413862 0.00549839 4.31974 13.0205 17.2978
193 2 8.64 -119.718 -60.022 -108.046 0.00477043 0.00258337 0.00456888 15.0112 8.13172 14.3805
208 2 8.64 -62.7586 -129.655 -56.5722 0.00259967 0.00536564 0.00282983 8.17675 16.8862 8.91935
215 2 8.64 -134.746 -9.14906 -51.3234 0.00529711 0.000160468 0.00189033 16.6702 0.50139 5.94156
230 2 8.64 -94.5682 -58.6461 -46.326 0.00414256 0.00239636 0.00201503 13.0503 7.53943 6.34151
237 2 8.64 -111.085 -17.17 -26.9019 0.00453746 0.000811967 0.00098158 14.281 2.55174 3.08603
253 2 8.64 -34.7234 -144.499 -20.9494 0.00160503 0.00560084 0.000795434 5.054 17.6237 2.50093
255 2 8.64 -35.9061 -41.0475 -52.1243 0.00160861 0.00116568 0.00165605 5.08333 3.63871 5.18592
256 2 8.64 -26.2861 -90.4011 -75.4691 0.00127622 0.00420729 0.00315983 4.02436 13.2642 9.94883
257 2 8.64 -28.0509 -141.986 -1.76871 0.000972524 0.00578783 0.000439029 3.05824 18.2202 1.39389
265 2 8.64 -60.9269 -116.437 -66.3546 0.00261229 0.00477186 0.00292904 8.22289 15.0193 9.22748
276 2 8.64 -129.782 -38.3776 -46.7331 0.00526993 0.00149815 0.00179555 16.5865 4.71034 5.64602
288 2 8.64 -115.218 -21.4301 -39.7735 0.00471661 0.000866457 0.00146531 14.8493 2.72623 4.60492
296 2 8.64 -32.1369 -71.0998 -87.9815 0.00116546 0.00324722 0.00398824 3.66754 10.2358 12.5698
305 2 8.64 -8.03349 -90.5896 -48.7974 0.000289823 0.0041019 0.00206248 0.913797 12.9237 6.49357
307 2 8.64 -112.526 -113.698 -64.5578 0.00457318 0.00463507 0.00267431 14.3931 14.5869 8.41822
315 2 8.64 -4.16306 -104.258 -102.047 4.42048e-05 0.00440375 0.00437177 0.13309 13.8631 13.7622
321 2 8.64 -48.8568 -108.767 -22.0767 0.00192866 0.004338 0.00060784 6.07003 13.6498 1.90445
323 2 8.64 -57.3547 -30.3543 -128.371 0.00218109 0.00117387 0.00523346 6.85954 3.69408 16.47
328 2 8.64 -91.4921 -65.5691 -36.6936 0.00401157 0.00266382 0.00110923 12.6426 8.38717 3.48041
340 2 8.64 -102.536 -55.9003 -79.3368 0.0040629 0.00240789 0.0035071 12.7858 7.58785 11.0453
352 2 8.64 -73.1102 -6.26937 -60.4786 0.00312178 4.57798e-05 0.00244517 9.82826 0.139035 7.69451
360 2 8.64 -167.548 -12.67 -65.0137 0.00684052 0.000165514 0.00262253 21.5319 0.515624 8.2526
364 2 8.64 -146.185 -14.923 -18.3106 0.00576291 0.00080605 0.000765545 18.1371 2.54112 2.4107
366 2 8.64 -17.9161 -62.1164 -164.423 0.000877076 0.00249494 0.0065778 2.76048 7.84622 20.6976
378 2 8.64 -20.0921 -12.7371 -82.3875 0.000623859 0.000862621 0.0033679 1.95614 2.71955 10.6013
381 2 8.64 -50.3731 -71.1476 -141.331 0.00180396 0.00297508 0.00585744 5.67132 9.35992 18.4377
394 2 8.64 -75.5976 -38.6028 -29.6463 0.00288709 0.00167498 0.000696495 9.07803 5.28019 2.1747
396 2 8.64 -36.4219 -76.2996 -72.1702 0.00193248 0.00347971 0.00284421 6.10394 10.973 8.95453
410 2 8.64 -127.982 -64.7951 -69.254 0.00513343 0.00301003 0.00321905 16.1601 9.476 10.1354
413 2 8.64 -30.0225 -52.9594 -4.16379 0.0011556 0.00184764 -0.000128905 3.63546 5.80797 -0.41171
431 2 8.64 -12.4679 -0.729111 -4.65971 0.000605442 -8.61235e-05 0.000330364 1.90991 -0.273679 1.04745
445 2 8.64 -59.8405 -79.3 -122.675 0.00196713 0.00318459 0.00518341 6.17987 10.0338 16.3152
449 2 8.64 -30.9867 -44.7337 -106.907 0.00118887 0.00158913 0.00438861 3.7388 4.98937 13.8154
450 2 8.64 -43.6556 -175.385 -10.3167 0.00174386 0.00708104 0.000440943 5.48465 22.2905 1.38772
476 3 9.6 -9.71875 -1.29405 -71.226 0.000489436 3.74863e-05 0.0029171 2.1136 0.160228 12.5918
480 3 9.6 -30.4967 -4.29802 -126.863 0.00133593 0.000150884 0.00496782 5.76892 0.650842 21.4346
485 3 9.6 -133.644 -23.2017 -55.8791 0.00528552 0.00071441 0.0018068 22.8186 3.06328 7.77359
509 3 9.6 -89.0178 -151.113 -18.2721 0.00379523 0.00600716 0.000807192 16.3911 25.9322 3.48597
514 3 9.6 -23.5689 -72.8999 -77.893 0.000684851 0.0033411 0.00363534 2.94248 14.4512 15.7235
518 3 9.6 -137.28 -53.7788 -38.812 0.00536239 0.00189825 0.00165683 23.1438 8.18813 7.1564
519 3 9.6 -79.0346 -93.0859 -4.34264 0.00315493 0.00381165 0.000126194 13.6177 16.4565 0.541128
521 3 9.6 -144.231 -54.1796 -96.2285 0.00570316 0.00245163 0.00389726 24.6206 10.5871 16.8261
529 3 9.6 -26.1935 -109.17 -65.7097 0.000749851 0.00456375 0.00339797 3.21246 19.7142 14.7222
530 3 9.6 -145.075 -46.4703 -63.395 0.00601357 0.00220558 0.00273136 25.973 9.54295 11.7876
552 3 9.6 -98.8358 -37.6922 -86.3542 0.0040388 0.00156997 0.00406376 17.447 6.78165 17.5585
554 3 9.6 -51.0159 -34.4337 -48.9419 0.00198481 0.00146673 0.00207695 8.5557 6.33733 8.96449
561 3 9.6 -54.4655 -56.991 -91.7992 0.00231525 0.00226252 0.0039058 9.99694 9.76147 16.8711
564 3 9.6 -75.3534 -139.816 -41.622 0.00329207 0.00572053 0.00173108 14.225 24.703 7.47019
573 3 9.6 -67.043 -2.69027 -103.721 0.00264251 -0.000179502 0.00456994 11.4105 -0.788327 19.7504
609 3 9.6 -102.18 -51.8149 -65.4088 0.00400347 0.00217095 0.00270026 17.2776 9.37481 11.6609
626 3 9.6 -162.675 -27.7961 -35.6871 0.00659442 0.00107547 0.00136179 28.4749 4.63772 5.87022
627 3 9.6 -54.4344 -87.1098 -77.7969 0.00208458 0.00381646 0.00289601 8.98951 16.4825 12.4938
639 3 9.6 -46.4859 -7.34907 -58.7793 0.00188844 0.000141697 0.0022755 8.15535 0.612178 9.82073
660 3 9.6 -147.582 -11.3352 -104.732 0.00590895 0.000155213 0.00437924 25.5135 0.665602 18.9087
669 3 9.6 -39.5213 -52.401 -153.322 0.00144497 0.00249766 0.00615356 6.23378 10.7831 26.5601
689 3 9.6 -169.171 -28.8637 -12.0395 0.00644118 0.00129176 0.000445798 27.7903 5.60405 1.91698
697 3 9.6 -148.137 -6.05499 -30.2361 0.00601817 0.000328361 0.00128071 25.9839 1.42455 5.53103
722 3 9.6 -40.5743 -173.961 -35.0076 0.0017787 0.00698706 0.00161498 7.67918 30.169 6.97695
724 3 9.6 -45.2587 -86.4331 -129.37 0.00151221 0.0035709 0.00550637 6.51157 15.4162 23.7735
726 3 9.6 -163.87 -41.0551 -74.5626 0.00631461 0.00180243 0.00316343 27.2608 7.78522 13.6676
731 3 9.6 -58.4775 -14.012 -49.2701 0.00230679 0.000212056 0.00208243 9.95035 0.906352 8.99436
732 3 9.6 -3.24618 -37.8971 -8.45526 0.000481289 0.00136119 3.44006e-05 2.09394 5.86911 0.140406
738 3 9.6 -78.4314 -45.9506 -143.993 0.00296855 0.00226751 0.006002 12.8152 9.79332 25.9208
742 3 9.6 -129.577 -94.123 -19.5628 0.00548652 0.00388419 0.00111784 23.6936 16.7696 4.84148
758 3 9.6 -1.69553 -129.729 -100.396 -9.96987e-05 0.00472897 0.00405042 -0.435091 20.3975 17.4888
763 3 9.6 -65.0998 -136.233 -18.4481 0.00289091 0.00542206 0.000763996 12.4892 23.4087 3.29529
770 3 9.6 -74.166 -1.65981 -90.176 0.00291968 1.75876e-05 0.00366283 12.6003 0.076138 15.8197
773 3 9.6 -33.1196 -98.2251 -113.64 0.00133282 0.00415849 0.00496684 5.75028 17.9578 21.4513
781 3 9.6 -22.1654 -136.944 -22.6774 0.000941936 0.00530231 0.000881372 4.06645 22.8741 3.81055
784 3 9.6 -153.41 -92.8429 -19.5225 0.00603838 0.00407865 0.000956805 26.0678 17.6187 4.13134
787 3 9.6 -49.5133 -97.1182 -57.332 0.00221301 0.00382347 0.00253174 9.56403 16.5023 10.9406
788 3 9.6 -93.298 -42.1756 -29.5103 0.00411964 0.0013796 0.000849288 17.8072 5.93911 3.63784
827 3 9.6 -161.338 -23.3405 -66.7937 0.00650076 0.000696764 0.00277152 28.0658 3.00806 11.9677
828 3 9.6 -20.1635 -87.1776 -15.2828 0.000613541 0.00350722 0.000461486 2.64402 15.1391 1.98468
829 3 9.6 -25.0079 -89.61 -136.547 0.00106899 0.00375015 0.00571769 4.61301 16.1914 24.6797
846 3 9.6 -168.555 -42.7809 -51.588 0.00672168 0.00157621 0.00196616 29.0194 6.80147 8.48586
863 3 9.6 -47.6176 -35.1846 -22.802 0.00186676 0.00132227 0.000974269 8.06141 5.69964 4.20697
896 3 9.6 -4.7295 -42.8133 -163.553 0.000449503 0.00250473 0.0065858 1.9596 10.8438 28.4444
901 3 9.6 -75.2786 -136.775 -76.4447 0.00302607 0.00559262 0.00306428 13.0632 24.1402 13.2254
903 3 9.6 -62.2716 -32.295 -31.9857 0.00246175 0.00126057 0.00105001 10.6209 5.43661 4.51852
906 3 9.6 -76.2586 -168.421 -21.3049 0.00327352 0.00658888 0.00110365 14.1396 28.4566 4.76457
916 3 9.6 -118.209 -19.5994 -64.6336 0.00438769 0.000727145 0.002596 18.9274 3.13711 11.2119
925 3 9.6 -76.2679 -49.9193 -56.2706 0.00317866 0.00203624 0.0023692 13.7244 8.78957 10.2311
930 3 9.6 -77.4652 -99.1509 -111.506 0.00353157 0.00413742 0.00454927 15.2614 17.8602 19.6515
933 3 9.6 -122.963 -98.7655 -83.7276 0.00489727 0.00414711 0.00339155 21.1425 17.9033 14.6393
936 3 9.6 -53.8637 -51.1175 -160.88 0.00223982 0.00202379 0.00664821 9.67134 8.73044 28.6998
968 3 9.6 -61.123 -132.441 -95.1639 0.00267004 0.00532564 0.00368206 11.5298 22.9878 15.8786
969 3 9.6 -45.148 -85.5937 -105.977 0.00173467 0.00373205 0.00466913 7.48269 16.1141 20.1649
972 3 9.6 -82.0434 -62.0588 -49.5654 0.00335401 0.00263793 0.00227187 14.4812 11.3958 9.81593
989 3 9.6 -148.51 -49.6451 -83.5693 0.00595114 0.00198565 0.00346315 25.6958 8.57388 14.9572
992 3 9.6 -111.067 -11.5798 -45.34 0.00454568 0.000184016 0.0018616 19.6244 0.787906 8.03532
1007 3 9.6 -100.628 -52.6942 -136.326 0.00408456 0.00240717 0.00563953 17.6355 10.3948 24.3494
1008 3 9.6 -93.2238 -50.4235 -37.6509 0.00405102 0.00208674 0.0014699 17.5162 9.01203 6.3549
1017 3 9.6 -18.1116 -16.9095 -175.6 0.000479743 0.000661907 0.00719997 2.05134 2.84537 31.096
1018 3 9.6 -79.0019 -45.9531 -131.851 0.00329491 0.00215611 0.00517246 14.2233 9.31844 22.3234
1019 3 9.6 -158.638 -14.7047 -48.3354 0.00649428 0.000252372 0.00192067 28.0422 1.08002 8.28709
1023 3 9.6 -79.2778 -66.4414 -128.499 0.00358045 0.00247406 0.00516089 15.4844 10.66 22.2796
1028 3 9.6 -41.1232 -130.325 -61.993 0.00162361 0.00544326 0.00259649 7.00856 23.5025 11.2096
1065 3 9.6 -96.6573 -101.456 -53.2729 0.00419822 0.00432166 0.00218416 18.131 18.663 9.43031
1077 3 9.6 -18.6919 -96.7926 -88.2915 0.000576473 0.00419456 0.00349504 2.47818 18.1145 15.0774
1085 3 9.6 -26.7394 -28.6991 -104.808 0.00104805 0.00118158 0.00425156 4.52174 5.10113 18.3613
1087 3 9.6 -93.8714 -57.3101 -99.3715 0.00395221 0.00235396 0.00435199 17.0614 10.1628 18.7989
1109 3 9.6 -28.3773 -158.214 -69.4708 0.0012805 0.00653782 0.00258105 5.53022 28.2232 11.1255
1121 3 9.6 -86.7664 -10.0726 -126.507 0.0034503 0.000476658 0.0049157 14.9016 2.05717 21.2109
1132 3 9.6 -1.76886 -69.5499 -65.7493 -0.000241622 0.00281515 0.00299938 -1.06561 12.1534 12.9556
1139 3 9.6 -134.691 -124.387 -2.23632 0.0055329 0.00479586 0.000197388 23.8867 20.7041 0.853393
1162 3 9.6 -64.3238 -150.948 -21.6588 0.00279596 0.00597667 0.0013291 12.0865 25.777 5.76028
1170 3 9.6 -77.0905 -8.60596 -138.138 0.00290896 0.000428695 0.00552475 12.5446 1.85569 23.8517
1210 3 9.6 -1.43752 -79.2059 -118.24 -6.93035e-05 0.00306351 0.00456925 -0.311606 13.2207 19.7136
1215 3 9.6 -29.3091 -14.1094 -69.2073 0.00107216 0.000497096 0.00273114 4.61796 2.14972 11.789
1218 3 9.6 -39.0558 -23.3356 -154.803 0.00182408 0.00109391 0.00621092 7.89117 4.72424 26.8092
1222 3 9.6 -116.879 -39.9551 -128.815 0.00503371 0.00168216 0.00512865 21.7394 7.26402 22.1348
1227 3 9.6 -16.0859 -2.16951 -27.7679 0.000701398 3.46578e-05 0.000774181 3.02577 0.143892 3.33058
1228 3 9.6 -77.417 -77.676 -94.8648 0.00333962 0.00316917 0.00402344 14.4242 13.6813 17.3708
1248 3 9.6 -44.8993 -151.66 -89.7773 0.00190828 0.00624519 0.00381392 8.24149 26.9777 16.4654
1249 3 9.6 -61.2393 -46.546 -131.907 0.00235111 0.00200519 0.00533169 10.146 8.66499 23.02
1259 3 9.6 -74.9659 -30.1828 -165.586 0.00292868 0.00168989 0.00690759 12.6552 7.32387 29.8552
1296 3 9.6 -66.8109 -21.6362 -51.5006 0.00284339 0.000817785 0.00209028 12.2802 3.5276 9.02981
1299 3 9.6 -20.4029 -71.3593 -11.3521 0.000810531 0.00297169 0.000379443 3.49569 12.8308 1.6309
1303 3 9.6 -70.2857 -114.519 -83.7686 0.00306924 0.00485913 0.00316694 13.2547 20.9797 13.6612
1332 3 9.6 -25.1289 -27.0588 -175.535 0.00100049 0.00194031 0.00704924 4.30968 8.41957 30.4243
1336 3 9.6 -16.0124 -0.366546 -164.598 0.00067949 -0.000369343 0.00687472 2.93306 -1.62533 29.695
1337 3 9.6 -159.021 -60.4093 -61.0868 0.00631689 0.00267697 0.0026824 27.2714 11.5641 11.582
1353 3 9.6 -29.9127 -38.5119 -32.4492 0.00117962 0.0015509 0.00140659 5.08789 6.69718 6.06876
1354 3 9.6 -1.57011 -92.0515 -113.366 -0.00012771 0.00391614 0.00462361 -0.563385 16.9097 19.9538
1355 3 9.6 -61.664 -104.345 -57.6213 0.00251967 0.0042367 0.00270529 10.8805 18.2892 11.6887
1370 3 9.6 -5.48414 -23.0187 -116.945 0.000170469 0.00110104 0.0047299 0.737179 4.76468 20.416
1375 3 9.6 -50.1998 -36.3454 -152.958 0.00211342 0.00177088 0.00617802 9.12896 7.65038 26.6688
1378 3 9.6 -41.5435 -17.88 -176.51 0.00230002 0.000710395 0.00691657 9.96968 3.06512 29.8617
1383 3 9.6 -48.673 -59.2527 -16.2762 0.00200565 0.00239965 0.000584411 8.6579 10.3574 2.51974
1391 3 9.6 -7.07713 -82.5551 -127.477 0.000471636 0.0035367 0.00535681 2.04507 15.2777 23.1347
1392 3 9.6 -39.0191 -79.9692 -95.7337 0.00148672 0.00340246 0.0042897 6.41604 14.6947 18.5416
1412 3 9.6 -38.38 -104.518 -96.6226 0.00158762 0.00460366 0.00402735 6.85569 19.8864 17.3894
1422 3 9.6 -20.8816 -21.9598 -64.6197 0.000621408 0.000918883 0.00262458 2.67382 3.97075 11.331
1424 3 9.6 -48.0075 -162.537 -21.0635 0.00183255 0.00659297 0.000970246 7.90049 28.4687 4.19179
1435 3 9.6 -4.2275 -162.162 -16.0411 0.000408725 0.00614895 0.000650014 1.78947 26.5263 2.80453
1444 3 9.6 -64.6775 -65.1622 -37.2478 0.00244187 0.00282831 0.00138493 10.5304 12.2155 5.96974
1450 3 9.6 -92.6074 -29.8745 -122.4 0.00353581 0.00120847 0.00479191 15.2511 5.21501 20.6828
1455 3 9.6 -75.8442 -26.805 -114.668 0.00322416 0.000964037 0.00479812 13.923 4.16003 20.7212
1458 3 9.6 -37.0783 -47.3704 -21.15 0.00131519 0.00196758 0.000914656 5.66803 8.49749 3.94519
1460 3 9.6 -148.743 -8.61905 -77.3881 0.0062042 0.000359833 0.00323552 26.7947 1.55579 13.9748
1469 3 9.6 -60.3926 -98.1653 -18.3573 0.00239918 0.0039287 0.000562966 10.3567 16.9615 2.42922
1470 3 9.6 -117.271 -65.4845 -87.96 0.00485257 0.00290465 0.00383277 20.9539 12.55 16.5588
1475 3 9.6 -56.9377 -133.559 -32.9681 0.00229865 0.00546532 0.00143611 9.92452 23.5992 6.20212
1477 3 9.6 -83.0094 -24.4937 -55.7937 0.00339952 0.000869009 0.00241143 14.6764 3.74163 10.4178
1487 3 9.6 -41.7639 -78.5823 -159.214 0.0016152 0.00325025 0.00632627 6.97126 14.03 27.3066
1488 3 9.6 -113.857 -30.7683 -77.2245 0.00471613 0.00124808 0.00307916 20.3667 5.38237 13.2962
1490 3 9.6 -102.667 -85.7152 -30.3927 0.0044422 0.0036771 0.00133121 19.194 15.8786 5.73974
1500 3 9.6 -21.444 -117.951 -93.5041 0.000944561 0.00465188 0.00381077 4.07237 20.0762 16.4562
1518 3 9.6 -3.08289 -12.7076 -170.847 -0.000140496 0.000260878 0.00714105 -0.604874 1.11417 30.8504
1519 3 9.6 -24.0183 -135.532 -74.6924 0.000822027 0.00529798 0.00296929 3.54061 22.8644 12.819
1524 3 9.6 -147.208 -69.2603 -56.3398 0.00611874 0.00308824 0.00255973 26.4263 13.3331 11.0588
1526 3 9.6 -51.9055 -90.2217 -25.108 0.00217066 0.0036431 0.00115059 9.37303 15.727 4.96254
1532 3 9.6 -17.3625 -75.6235 -52.8426 0.000692098 0.0032413 0.00192243 2.98861 14.0003 8.28255
1536 3 9.6 -3.49571 -34.4147 -155.174 0.000361554 0.00188185 0.00612501 1.58009 8.14352 26.4305
1545 3 9.6 -70.7127 -58.3405 -158.054 0.00278329 0.00235957 0.00621621 12.0142 10.1874 26.8314
1547 3 9.6 -72.4106 -39.6088 -60.8249 0.00292743 0.00146234 0.00245479 12.6328 6.30916 10.6018
1562 3 9.6 -78.915 -124.905 -16.466 0.00329633 0.00512037 0.000626952 14.2341 22.1092 2.70341
1566 3 9.6 -19.006 -129.274 -107.643 0.000695399 0.00493049 0.00454122 3.00332 21.2749 19.6133
1567 3 9.6 -92.3978 -94.3623 -97.0766 0.0039095 0.00372115 0.00409775 16.8865 16.0557 17.694
1568 3 9.6 -30.9257 -66.2451 -24.5615 0.00149219 0.00257802 0.00117469 6.45775 11.1309 5.07893
1575 3 9.6 -29.7866 -94.7991 -7.4546 0.00115729 0.00393553 8.19501e-05 4.98789 16.9956 0.341429
1580 3 9.6 -118.063 -102.153 -32.7602 0.00493946 0.00422528 0.00169324 21.3333 18.242 7.32988
1582 3 9.6 -23.8025 -156.235 -80.5493 0.000834108 0.00621986 0.00331606 3.59356 26.8548 14.319
1584 3 9.6 -64.5512 -148.014 -48.2883 0.00261843 0.0060339 0.00212835 11.2997 26.0567 9.19412
1588 3 9.6 -39.7298 -29.6069 -135.342 0.00188407 0.00146703 0.00532889 8.14023 6.34403 22.9951
1593 3 9.6 -69.8826 -84.0995 -130.629 0.00281929 0.00381957 0.00558551 12.1724 16.511 24.1192
1604 3 9.6 -82.8855 -148.833 -0.394946 0.00366362 0.0060371 5.47424e-05 15.8221 26.0672 0.22574
1610 3 9.6 -59.6389 -53.5149 -47.3328 0.00206652 0.00218178 0.0019637 8.90705 9.42229 8.47424
1611 3 9.6 -58.2762 -0.570457 -142.44 0.00276554 -0.000104358 0.00573714 11.958 -0.45019 24.7786
1628 3 9.6 -43.1141 -67.0739 -39.7699 0.00187992 0.00267804 0.00161172 8.11874 11.5631 6.955
1644 3 9.6 -52.7552 -61.7402 -155.442 0.00205339 0.00280451 0.00618575 8.86431 12.1184 26.6949
1645 3 9.6 -40.8068 -97.1489 -5.16633 0.00196908 0.00417584 -3.64811e-05 8.51902 18.038 -0.168999
1655 3 9.6 -78.08 -77.4709 -75.7677 0.00305961 0.00333822 0.00309126 13.2066 14.4141 13.3477
1670 3 9.6 -88.1344 -121.235 -48.937 0.00368971 0.00509608 0.00225729 15.9305 22.0039 9.75314
1672 3 9.6 -63.3715 -87.8406 -94.7071 0.00264443 0.00338489 0.0040279 11.4178 14.6065 17.4027
1674 3 9.6 -144.788 -3.06602 -14.3498 0.00571504 1.30714e-05 0.000512482 24.669 0.0530586 2.20581
1679 3 9.6 -124.481 -46.8506 -89.6571 0.00514484 0.00189207 0.00392492 22.2111 8.1721 16.9586
1680 3 9.6 -90.0222 -31.0459 -43.9914 0.00394034 0.00124929 0.00172234 17.0228 5.39266 7.43508
1685 3 9.6 -90.4012 -13.6472 -63.0857 0.00379542 0.000348508 0.00259395 16.3935 1.49779 11.198
1688 3 9.6 -10.9814 -77.1983 -34.7358 0.000686388 0.00340242 0.00139911 2.98502 14.7195 6.04757
1690 3 9.6 -57.9595 -115.142 -45.2601 0.00262855 0.00470566 0.00218845 11.3742 20.3134 9.4624
1697 3 9.6 -116.354 -106.053 -5.41794 0.00484183 0.00447947 0.000535609 20.907 19.3467 2.32494
1704 3 9.6 -112.702 -34.2149 -51.2342 0.00455701 0.00110807 0.00206887 19.674 4.77359 8.92915
1709 3 9.6 -67.5082 -80.3773 -50.761 0.00258028 0.00347142 0.00223258 11.1336 14.9965 9.64517
1715 3 9.6 -138.428 -104.065 -17.2983 0.00584756 0.00446758 0.000798134 25.2539 19.2918 3.45005
1722 3 9.6 -124.225 -12.5121 -16.271 0.00497401 0.000615287 0.000648174 21.4721 2.65807 2.79781
1723 3 9.6 -27.0698 -120.901 -76.4309 0.00105142 0.00474842 0.00334864 4.5298 20.4922 14.4576
1736 3 9.6 -85.8208 -6.79366 -104.077 0.00315194 0.000320707 0.00462948 13.5847 1.3854 20.0033
1745 3 9.6 -22.725 -4.1574 -105.606 0.00105197 0.000304908 0.00419124 4.55415 1.32047 18.0864
1751 3 9.6 -38.2677 -82.8089 -51.4894 0.00192833 0.00357699 0.00220897 8.33409 15.4624 9.53708
1761 3 9.6 -88.9852 -115.819 -106.404 0.00343125 0.00467124 0.00464167 14.7985 20.175 20.0537
1762 3 9.6 -1.90273 -174.171 -47.5105 8.2113e-05 0.00688153 0.00185282 0.351308 29.709 7.99505
1775 3 9.6 -24.9207 -60.3134 -16.9506 0.00103921 0.00206978 0.000443451 4.48893 8.91767 1.90242
1776 3 9.6 -104.79 -63.9993 -14.1394 0.00428454 0.00255333 0.000733243 18.5051 11.0192 3.1678
1779 3 9.6 -72.3567 -77.9935 -25.9387 0.00261574 0.00326366 0.000901094 11.2715 14.0921 3.88157
1782 3 9.6 -153.428 -29.2613 -49.4084 0.00626061 0.0011722 0.00193238 27.0303 5.06241 8.3409
1785 3 9.6 -64.6516 -48.5226 -2.68047 0.00258224 0.00179852 0.000142468 11.1503 7.75861 0.615608
1786 3 9.6 -111.606 -79.1512 -77.3005 0.00467159 0.00352877 0.00333248 20.1755 15.2463 14.3952
1816 3 9.6 -56.9213 -134.41 -105.763 0.00212877 0.00545358 0.00453037 9.18668 23.5427 19.5691
1826 3 9.6 -23.2525 -34.7261 -84.3028 0.000850219 0.0012536 0.00367108 3.66443 5.40724 15.8586
1844 3 9.6 -127.933 -36.5317 -23.304 0.00507737 0.00107474 0.000804732 21.9187 4.62673 3.47401
1849 3 9.6 -58.7835 -165.315 -29.6287 0.00252775 0.00679375 0.00154998 10.9159 29.3404 6.70777
1876 3 9.6 -150.567 -29.2054 -98.829 0.00608061 0.00118791 0.00370956 26.2653 5.12537 15.996
1879 3 9.6 -71.936 -24.086 -70.7207 0.00306243 0.000855231 0.00287713 13.2213 3.68797 12.4244
1883 3 9.6 -5.9246 -125.918 -29.068 0.000268659 0.00493205 0.00134738 1.17216 21.287 5.81949
1903 3 9.6 -113.304 -106.085 -23.254 0.00446475 0.00454967 0.000892236 19.2718 19.6532 3.84372
1916 3 9.6 -69.0504 -2.74566 -165.722 0.00292016 -8.17592e-05 0.0065976 12.6119 -0.357243 28.4766
1917 3 9.6 -14.6854 -161.27 -43.5385 0.000656064 0.00634625 0.00181448 2.83588 27.3945 7.83619
1926 3 9.6 -108.817 -62.2173 -58.5233 0.00448028 0.00256851 0.00244373 19.3429 11.0913 10.5506
1929 3 9.6 -99.4591 -68.0566 -81.2188 0.00418604 0.00284003 0.00362057 18.076 12.2637 15.644
1939 3 9.6 -136.276 -97.8313 -50.8196 0.00561607 0.00401438 0.002136 24.2448 17.3299 9.22221
1940 3 9.6 -14.7356 -129.559 -91.0572 0.00056551 0.00502599 0.00371966 2.43939 21.6843 16.0591
1944 3 9.6 -15.1235 -43.0776 -146.414 0.000659124 0.00250227 0.00577658 2.8491 10.8297 24.9301
1954 3 9.6 -134.873 -116.682 -38.6001 0.00543796 0.00459524 0.00157785 23.4725 19.837 6.8108
1955 3 9.6 -61.1413 -15.4058 -148.115 0.00254813 0.000559795 0.00575408 11.0025 2.40776 24.835
1965 3 9.6 -38.4749 -57.1723 -166.17 0.0013424 0.00249117 0.00674972 5.79097 10.7569 29.136
1966 3 9.6 -46.6185 -49.6574 -80.4765 0.00210666 0.00196053 0.003274 9.09378 8.45903 14.1434
1969 3 9.6 -101.387 -22.1509 -149.57 0.00406269 0.000931796 0.00601934 17.5364 4.02569 25.9874
1972 3 9.6 -70.9124 -142.265 -5.45011 0.0030164 0.00568852 0.000135492 13.0333 24.5503 0.581852
1982 3 9.6 -109.473 -9.16058 -74.6397 0.00444989 0.000250817 0.00283794 19.2129 1.08281 12.2429
1985 3 9.6 -65.891 -162.177 -47.0464 0.00258656 0.00663404 0.00192402 11.164 28.6451 8.30714
1986 3 9.6 -90.018 -89.2705 -10.2797 0.00377091 0.00360259 0.000313917 16.2844 15.5526 1.35492
1987 3 9.6 -26.3847 -37.5177 -162.803 0.00111644 0.0021621 0.00679271 4.82303 9.35333 29.3336
1989 3 9.6 -158.149 -23.5182 -85.1658 0.00657911 0.000857854 0.00342012 28.4107 3.7075 14.7689
1990 3 9.6 -98.0486 -131.714 -10.8454 0.00387538 0.00576736 0.00061377 16.7321 24.9081 2.65541
1998 3 9.6 -127.927 -84.0349 -68.8054 0.00531838 0.00357201 0.00327129 22.9693 15.4315 14.1435
2000 3 9.6 -45.9728 -124.807 -72.2066 0.00187011 0.00462922 0.00318174 8.07946 19.9693 13.7335
2005 3 9.6 -147.066 -74.1499 -44.8149 0.00598706 0.00327814 0.00174299 25.8531 14.1693 7.52461
2006 3 9.6 -10.1801 -103.385 -66.8074 0.00038005 0.00452917 0.00288933 1.64115 19.5634 12.4784
2011 3 9.6 -36.4173 -115.559 -60.6688 0.00167119 0.00482086 0.00291059 7.22956 20.8371 12.5905
2017 3 9.6 -98.2575 -150.106 -33.6635 0.00398861 0.00593675 0.00126256 17.2182 25.6283 5.45135
2021 3 9.6 -52.0308 -35.6332 -102.227 0.0019461 0.00153258 0.00427457 8.39554 6.62877 18.4588
2031 3 9.6 -54.1508 -95.1523 -146.166 0.00179652 0.00391957 0.00589676 7.75105 16.9293 25.4531
2036 3 9.6 -47.842 -43.7031 -90.8415 0.00179141 0.00162592 0.0038276 7.74013 7.01669 16.5299
2061 3 9.6 -42.1111 -88.8378 -15.7395 0.00200313 0.00366099 0.000602134 8.66531 15.8076 2.60182
2082 3 9.6 -169.177 -54.8398 -53.3168 0.00667476 0.00241311 0.00219515 28.8205 10.4254 9.47385
2086 3 9.6 -12.8908 -14.539 -55.4784 0.00040787 0.00065607 0.0025636 1.76375 2.84016 11.0905
2104 3 9.6 -173.445 -22.2547 -22.3064 0.00681195 0.00113381 0.00158503 29.3903 4.90787 6.87004
2107 3 9.6 -170.806 -55.5175 -8.747 0.00703976 0.00246275 0.000150775 30.3987 10.6303 0.65232
2109 3 9.6 -20.6956 -52.9221 -123.055 0.000675213 0.00229722 0.00535973 2.90685 9.92191 23.1494
2120 3 9.6 -5.78707 -11.2952 -123.831 0.000201725 0.000525309 0.00517925 0.868929 2.27418 22.3552
2155 3 9.6 -46.2697 -110.584 -119.611 0.00150339 0.00475862 0.00496287 6.48156 20.5497 21.4234
2160 3 9.6 -70.4876 -29.6692 -153.767 0.00270354 0.00164669 0.00602032 11.6548 7.13383 25.9603
2165 3 9.6 -37.3801 -22.2936 -70.9616 0.00170707 0.00108436 0.00301028 7.37876 4.69346 13.0005
2171 3 9.6 -67.821 -17.4639 -126.393 0.00268492 0.000582929 0.00504299 11.5908 2.51178 21.7719
2181 3 9.6 -32.5453 -31.3122 -13.7215 0.00123166 0.001281 0.00021876 5.30948 5.53202 0.928671
2190 3 9.6 -169.217 -29.1842 -53.7727 0.00686606 0.000916794 0.00204356 29.6436 3.95738 8.81671
2194 3 9.6 -103.807 -47.9517 -21.9319 0.00429889 0.00190978 0.000793844 18.5645 8.23387 3.41994
2200 3 9.6 -68.8736 -128.961 -41.6109 0.00288504 0.00516257 0.00165687 12.457 22.2892 7.14375
2210 3 9.6 -130.527 -29.1994 -107 0.00515954 0.00146049 0.00463492 22.2849 6.3169 20.0244
2211 3 9.6 -147.442 -20.6844 -3.49302 0.00566496 0.000768661 0.000295855 24.4428 3.31147 1.28297
2223 3 9.6 -105.988 -131.706 -31.2149 0.00450749 0.00554408 0.00123997 19.4671 23.9342 5.35331
2233 3 9.6 -81.3061 -60.2594 -63.6074 0.00330963 0.00272386 0.00298838 14.296 11.7697 12.9142
2235 3 9.6 -107.97 -31.4056 -126.079 0.00450844 0.00136212 0.00486943 19.4767 5.88465 21.0137
2236 3 9.6 -93.3027 -39.6578 -59.6016 0.00389713 0.00148828 0.00240486 16.8332 6.42184 10.3838
2240 3 9.6 -48.0409 -7.75522 -23.0951 0.00178094 0.000239222 0.000657875 7.68327 1.02102 2.83685
2243 3 9.6 -34.1378 -97.0488 -53.1046 0.00150368 0.00370535 0.00220774 6.49552 15.9701 9.52308
2246 3 9.6 -9.00237 -40.4764 -67.5107 0.000100079 0.00145981 0.00284201 0.417427 6.2968 12.2781
2261 3 9.6 -47.3615 -44.0982 -15.677 0.00196718 0.00184229 0.000387586 8.49429 7.96031 1.66155
2263 3 9.6 -53.1852 -25.58 -109.456 0.00219781 0.000866278 0.00495197 9.48618 3.73435 21.3983
2264 3 9.6 -144.404 -87.0647 -7.53483 0.00585383 0.00385481 0.000299696 25.2726 16.6479 1.29269
2288 3 9.6 -107.527 -123.724 -54.1712 0.00455179 0.00491854 0.00219609 19.6571 21.2273 9.48335
2298 3 9.6 -35.8411 -165.949 -50.5531 0.00161955 0.00671813 0.00225198 6.99352 28.9999 9.72533
2306 3 9.6 -21.6823 -103.559 -98.3775 0.000796324 0.00456916 0.00418591 3.43373 19.7556 18.0759
2340 3 9.6 -42.6297 -110.498 -42.2115 0.00178366 0.00410111 0.00195002 7.69923 17.6785 8.42958
2344 3 9.6 -61.5472 -86.1544 -146.058 0.00236995 0.00345369 0.00592224 10.233 14.9037 25.5669
2355 3 9.6 -148.995 -60.9981 -77.4669 0.00601556 0.00284015 0.00321902 25.9727 12.2691 13.8954
2358 3 9.6 -80.1038 -107.116 -31.8255 0.00333529 0.00461152 0.00106567 14.3999 19.9229 4.5876
2363 3 9.6 -53.5705 -25.3497 -84.253 0.00190908 0.00110316 0.00337225 8.23008 4.76485 14.557
2377 3 9.6 -59.9253 -1.01487 -70.1688 0.00247018 -0.00017879 0.00284004 10.6595 -0.78292 12.2561
2391 3 9.6 -23.5898 -113.062 -110.074 0.0010366 0.00462359 0.00478596 4.46999 19.9643 20.664
2399 3 9.6 -14.9705 -168.367 -77.138 0.000550931 0.00670645 0.00279437 2.37561 28.9635 12.0531
2417 3 9.6 -84.3204 -32.4871 -84.4231 0.0034116 0.0013218 0.0037554 14.7235 5.70797 16.2259
2430 3 9.6 -4.6011 -72.9798 -133.854 0.000111254 0.00271298 0.00565901 0.48349 11.7007 24.4372
2450 3 9.6 -1.87853 -41.7235 -88.149 0.00018093 0.00167802 0.00352754 0.776971 7.24231 15.2308
2452 3 9.6 -9.48016 -183.277 -28.0329 0.000605979 0.00725395 0.00117784 2.62025 31.3215 5.08803
2471 3 9.6 -115.409 -29.0396 -108.95 0.00446992 0.00154877 0.00466995 19.295 6.70307 20.1753
2481 3 9.6 -133.924 -46.3567 -17.7094 0.00543882 0.00161961 0.000506182 23.4849 6.98045 2.17641
2486 3 9.6 -112.954 -91.782 -18.7597 0.00449121 0.00360068 0.000828801 19.3821 15.5412 3.57814
2491 3 9.6 -134.541 -12.0137 -7.48374 0.00535587 0.000489835 0.00020346 23.121 2.1187 0.877635
2504 3 9.6 -102.791 -8.1684 -0.207536 0.00389868 7.13092e-05 0.000275893 16.8199 0.290905 1.2012
2508 3 9.6 -63.0359 -63.8879 -131.076 0.00217713 0.00230357 0.00544903 9.38091 9.91489 23.5324
2514 3 9.6 -122.707 -57.485 -50.2984 0.00503025 0.00216534 0.00211419 21.7118 9.34488 9.12123
2521 3 9.6 -52.8267 -143.45 -89.4376 0.00256944 0.00577339 0.00366745 11.1082 24.9156 15.8335
2525 3 9.6 -21.1929 -122.156 -31.3654 0.00060763 0.00505219 0.00116394 2.60281 21.818 5.01675
2526 3 9.6 -108.86 -93.3371 -5.1149 0.00424776 0.00367765 0.000290996 18.3344 15.8659 1.25893
2532 3 9.6 -99.2867 -104.535 -89.8343 0.00441225 0.00414719 0.00331756 19.0521 17.8985 14.312
2541 3 9.6 -31.8737 -153.659 -56.1402 0.00148444 0.00625769 0.00240707 6.40709 27.02 10.3977
2544 3 9.6 -169.792 -34.2573 -66.3049 0.00680646 0.00127954 0.00269245 29.3937 5.52081 11.6229
2545 3 9.6 -156.734 -77.2727 -31.0708 0.00622483 0.0035725 0.00146505 26.8731 15.4357 6.33525