ITEM: TIMESTEP
12600
ITEM: NUMBER OF ATOMS
6100
ITEM: BOX BOUNDS ff ff ff
-1.0000000000000000e+03 1.0000000000000000e+03
-1.0000000000000000e+03 1.0000000000000000e+03
-1.0000000000000000e+03 1.0000000000000000e+03
ITEM: ATOMS id type diameter x y z vx vy vz fx fy fz
3 1 7.68 -174.136 -22.9441 -44.3185 0.00548774 0.000510913 0.00128687 15.5311 1.4454 3.64126
10 1 7.68 -56.1525 -113.462 -93.101 0.00150176 0.0037315 0.0029586 4.24696 10.5636 8.37316
20 1 7.68 -155.458 -37.467 -89.8307 0.00476898 0.00130224 0.00274806 13.498 3.68652 7.7774
25 1 7.68 -96.5956 -35.9485 -150.956 0.00319247 0.00108129 0.00466558 9.03928 3.05768 13.2041
30 1 7.68 -4.92336 -23.9651 -19.9759 0.00026904 0.000930419 0.000159507 0.766714 2.63854 0.444929
35 1 7.68 -109.298 -74.3234 -10.8559 0.00356678 0.00246522 0.000474016 10.0962 6.97898 1.34115
44 1 7.68 -150.14 -89.0638 -61.5759 0.00445047 0.0028469 0.00198931 12.5945 8.05717 5.6294
57 1 7.68 -47.7176 -112.953 -3.84735 0.00154617 0.00331542 0.000186878 4.37755 9.37917 0.529655
62 1 7.68 -115.615 -26.8482 -6.69677 0.00359008 0.000767383 0.00039497 10.1599 2.17255 1.12023
67 1 7.68 -27.9957 -70.0472 -126.602 0.000619161 0.00223102 0.00410177 1.74858 6.31415 11.613
72 1 7.68 -87.3638 -129.546 -81.9337 0.00265591 0.00408394 0.00244419 7.51764 11.5581 6.91447
79 1 7.68 -9.93584 -129.898 -59.4128 0.00019018 0.00408204 0.00195898 0.53638 11.5522 5.54509
93 1 7.68 -163.261 -35.6995 -19.2829 0.00496829 0.00106829 0.000791561 14.0605 3.02089 2.24033
122 1 7.68 -74.3187 -76.4515 -62.4682 0.00234826 0.00258949 0.00210428 6.6459 7.33159 5.95979
125 1 7.68 -56.9109 -20.1681 -166.725 0.00171701 0.000768747 0.00530773 4.8571 2.17469 15.0241
127 1 7.68 -79.356 -32.0123 -13.1944 0.00248081 0.000741759 0.000129997 7.02244 2.09783 0.364794
149 1 7.68 -124.081 -113.626 -68.2679 0.00395229 0.00350868 0.00216497 11.1847 9.92809 6.12675
150 1 7.68 -68.6579 -105.632 -93.1499 0.00219778 0.00340378 0.00274017 6.22208 9.63634 7.75262
157 2 8.64 -61.6188 -75.0781 -17.7501 0.00181912 0.00249832 0.000441389 7.32943 10.0699 1.77855
162 2 8.64 -13.7144 -107.706 -150.193 0.000615686 0.00310801 0.00458243 2.48017 12.5187 18.4596
166 2 8.64 -37.8267 -31.7656 -119.406 0.00116532 0.000954355 0.00383931 4.69486 3.84465 15.4749
178 2 8.64 -94.0313 -18.039 -101.818 0.00290838 0.000900719 0.00339587 11.7183 3.63734 13.6893
187 2 8.64 -32.3748 -105.597 -140.042 0.00106596 0.00321247 0.00426798 4.29411 12.9422 17.1942
193 2 8.64 -120.086 -60.221 -108.398 0.00370274 0.00200505 0.00354612 14.9192 8.08032 14.2902
208 2 8.64 -62.9589 -130.069 -56.7901 0.00201801 0.00416463 0.00219576 8.12882 16.7814 8.85595
215 2 8.64 -135.154 -9.16143 -51.4691 0.00411146 0.000124727 0.00146758 16.567 0.50043 5.90915
230 2 8.64 -94.8872 -58.8307 -46.4812 0.00321467 0.00186009 0.001564 12.9615 7.49395 6.30216
237 2 8.64 -111.435 -17.2325 -26.9775 0.00352177 0.000630398 0.000762022 14.1917 2.53805 3.06872
253 2 8.64 -34.8471 -144.931 -21.0107 0.00124563 0.00434732 0.000617506 5.02097 17.516 2.48683
255 2 8.64 -36.03 -41.1374 -52.252 0.00124753 0.000906217 0.00128663 5.03934 3.63393 5.16917
256 2 8.64 -26.3844 -90.7251 -75.7125 0.000990168 0.00326442 0.00245233 3.99464 13.168 9.88441
257 2 8.64 -28.1258 -142.431 -1.80249 0.000754958 0.00449207 0.000340163 3.04069 18.104 1.37797
265 2 8.64 -61.1281 -116.805 -66.5802 0.00202749 0.00370367 0.00227296 8.17084 14.9251 9.1646
276 2 8.64 -130.188 -38.493 -46.8714 0.00409027 0.00116304 0.00139388 16.4827 4.68379 5.61382
288 2 8.64 -115.581 -21.4969 -39.8864 0.0036606 0.000672545 0.00113764 14.7538 2.70966 4.58024
296 2 8.64 -32.2267 -71.3499 -88.2887 0.000904609 0.00251958 0.00309464 3.64495 10.1625 12.4809
305 2 8.64 -8.05581 -90.9055 -48.9563 0.000224868 0.00318305 0.00160069 0.907116 12.8349 6.45165
307 2 8.64 -112.878 -114.055 -64.7638 0.00354951 0.00359759 0.00207562 14.3033 14.4965 8.36488
315 2 8.64 -4.16648 -104.597 -102.384 3.46057e-05 0.00341784 0.00339304 0.135839 13.7747 13.6746
321 2 8.64 -49.0053 -109.101 -22.1235 0.00149694 0.00336713 0.000472202 6.03216 13.5665 1.89767
323 2 8.64 -57.5228 -30.4447 -128.774 0.00169311 0.000911131 0.00406205 6.81969 3.67129 16.3679
328 2 8.64 -91.8011 -65.7743 -36.779 0.00311279 0.00206738 0.00086146 12.5536 8.33285 3.46503
340 2 8.64 -102.849 -56.0857 -79.6069 0.00315352 0.00186843 0.00272169 12.7068 7.53485 10.972
352 2 8.64 -73.3507 -6.27291 -60.667 0.00242284 3.57796e-05 0.0018979 9.7651 0.141162 7.64719
360 2 8.64 -168.075 -12.6827 -65.2157 0.00530919 0.000128724 0.00203556 21.3959 0.51555 8.20186
364 2 8.64 -146.629 -14.9851 -18.3696 0.00447295 0.000625415 0.00059412 18.0242 2.52273 2.39488
366 2 8.64 -17.9837 -62.3086 -164.93 0.000680747 0.00193676 0.00510564 2.74321 7.80087 20.5712
378 2 8.64 -20.1402 -12.8036 -82.6469 0.000484572 0.000669303 0.00261395 1.94827 2.69984 10.5342
381 2 8.64 -50.5121 -71.3767 -141.782 0.00140047 0.00230931 0.00454617 5.63965 9.30361 18.3211
394 2 8.64 -75.82 -38.7318 -29.7 0.00224125 0.00129964 0.000541441 9.02643 5.24215 2.17144
396 2 8.64 -36.5707 -76.5676 -72.3892 0.00149884 0.00269977 0.00220741 6.05282 10.8918 8.89688
410 2 8.64 -128.377 -65.027 -69.502 0.00398417 0.00233613 0.00249829 16.0571 9.41537 10.0697
413 2 8.64 -30.1115 -53.1018 -4.15388 0.000897002 0.00143441 -9.9756e-05 3.61368 5.77593 -0.405579
431 2 8.64 -12.5145 -0.722483 -4.68514 0.000469703 -6.6717e-05 0.000256039 1.89539 -0.270415 1.03631
445 2 8.64 -59.9921 -79.5453 -123.074 0.00152735 0.00247121 0.00402307 6.14798 9.96462 16.2125
449 2 8.64 -31.0783 -44.8561 -107.245 0.000922895 0.001234 0.0034061 3.71719 4.96543 13.7273
450 2 8.64 -43.7899 -175.931 -10.3506 0.0013537 0.0054958 0.000342244 5.45267 22.1488 1.37909
476 3 9.6 -9.75645 -1.29694 -71.4507 0.00037986 2.91529e-05 0.0022642 2.10007 0.160181 12.5145
480 3 9.6 -30.5996 -4.30964 -127.246 0.00103684 0.00011713 0.00385627 5.73212 0.647115 21.3085
485 3 9.6 -134.051 -23.2568 -56.0183 0.00410241 0.000555243 0.00140332 22.6765 3.05674 7.7411
509 3 9.6 -89.3101 -151.576 -18.3343 0.00294548 0.00466259 0.00062647 16.2852 25.7718 3.46356
514 3 9.6 -23.6217 -73.1572 -78.173 0.000532059 0.00259227 0.00282057 2.93257 14.3451 15.6083
518 3 9.6 -137.693 -53.925 -38.9397 0.00416231 0.0014736 0.00128584 23.0036 8.14127 7.10972
519 3 9.6 -79.2777 -93.3796 -4.35237 0.00244884 0.00295842 9.80781e-05 13.5345 16.3535 0.539943
521 3 9.6 -144.67 -54.3684 -96.5287 0.00442661 0.00190275 0.00302487 24.4679 10.5194 16.7208
529 3 9.6 -26.2513 -109.521 -65.9713 0.000582888 0.00354179 0.0026355 3.20724 19.5845 14.5991
530 3 9.6 -145.538 -46.6402 -63.6054 0.0046671 0.00171114 0.00212013 25.8045 9.47099 11.7167
552 3 9.6 -99.1468 -37.8132 -86.6672 0.00313438 0.00121841 0.00315362 17.3319 6.73717 17.4405
554 3 9.6 -51.1688 -34.5466 -49.1019 0.001541 0.00113824 0.00161212 8.5102 6.29477 8.9099
561 3 9.6 -54.6438 -57.1653 -92.1001 0.00179695 0.0017563 0.00303121 9.93375 9.7044 16.7607
564 3 9.6 -75.6069 -140.257 -41.7553 0.00255473 0.00443983 0.00134371 14.129 24.5454 7.42556
573 3 9.6 -67.2465 -2.67647 -104.073 0.00205093 -0.000138845 0.00354625 11.3381 -0.775461 19.6149
609 3 9.6 -102.489 -51.9821 -65.6167 0.00310756 0.00168493 0.00209572 17.1737 9.31499 11.5863
626 3 9.6 -163.183 -27.8789 -35.792 0.00511813 0.000834927 0.00105729 28.2943 4.61197 5.83894
627 3 9.6 -54.595 -87.4038 -78.02 0.00161833 0.00296197 0.00224809 8.93948 16.3762 12.4212
639 3 9.6 -46.6314 -7.35999 -58.9546 0.00146564 0.000109964 0.00176626 8.10302 0.608103 9.76137
660 3 9.6 -148.037 -11.3472 -105.069 0.00458617 0.00012063 0.0033989 25.3525 0.664123 18.7893
669 3 9.6 -39.6326 -52.5934 -153.796 0.00112168 0.00193858 0.00477637 6.19757 10.7158 26.3982
689 3 9.6 -169.667 -28.9631 -12.0738 0.00500001 0.00100164 0.000346283 27.6276 5.55289 1.90955
697 3 9.6 -148.601 -6.08027 -30.3348 0.00467099 0.000254613 0.000993972 25.8207 1.41154 5.49542
722 3 9.6 -40.7113 -174.5 -35.132 0.00138055 0.00542292 0.00125331 7.63123 29.9784 6.93067
724 3 9.6 -45.3752 -86.7082 -129.794 0.00117433 0.0027716 0.00427378 6.48107 15.3202 23.6246
726 3 9.6 -164.356 -41.1939 -74.8062 0.00490117 0.00139884 0.00245495 27.0913 7.73449 13.5762
731 3 9.6 -58.6552 -14.0284 -49.4305 0.00179074 0.000164915 0.00161616 9.89343 0.90614 8.93591
732 3 9.6 -3.28323 -38.002 -8.45792 0.000372982 0.00105677 2.69902e-05 2.07131 5.83695 0.144337
738 3 9.6 -78.66 -46.1252 -144.455 0.00230409 0.00175981 0.0046582 12.7357 9.72993 25.754
742 3 9.6 -129.999 -94.4222 -19.6489 0.00425816 0.00301472 0.00086707 23.5417 16.6647 4.80206
758 3 9.6 -1.68786 -130.094 -100.708 -7.72154e-05 0.0036711 0.0031437 -0.429609 20.2814 17.3785
763 3 9.6 -65.3225 -136.651 -18.507 0.00224351 0.00420837 0.000593092 12.4063 23.2625 3.27657
770 3 9.6 -74.3909 -1.66116 -90.4581 0.0022663 1.36438e-05 0.00284271 12.5245 0.0755293 15.7173
773 3 9.6 -33.2223 -98.5454 -114.022 0.00103462 0.00322748 0.00385476 5.71669 17.8431 21.3127
781 3 9.6 -22.238 -137.352 -22.7453 0.000731097 0.00411605 0.000683891 4.04114 22.7417 3.78354
784 3 9.6 -153.875 -93.157 -19.5962 0.00468679 0.00316532 0.000742613 25.9061 17.5028 4.10524
787 3 9.6 -49.6838 -97.4127 -57.527 0.0017173 0.00296778 0.00196466 9.49849 16.4021 10.8662
788 3 9.6 -93.6153 -42.2819 -29.5758 0.00319672 0.00107139 0.000660208 17.6832 5.91222 3.63226
827 3 9.6 -161.839 -23.3942 -67.0072 0.00504561 0.000540801 0.00215105 27.8905 2.98933 11.8917
828 3 9.6 -20.2108 -87.4477 -15.3183 0.000476376 0.00272225 0.000358459 2.63038 15.0462 1.97686
829 3 9.6 -25.0902 -89.8989 -136.987 0.000829782 0.00291067 0.00443802 4.58548 16.0898 24.5287
846 3 9.6 -169.072 -42.9023 -51.7394 0.00521709 0.00122351 0.00152614 28.8383 6.76108 8.43445
863 3 9.6 -47.7614 -35.2865 -22.877 0.00144883 0.00102661 0.000756159 8.00985 5.6694 4.18025
896 3 9.6 -4.76409 -43.0061 -164.06 0.00034821 0.00194299 0.0051112 1.93607 10.7582 28.2599
901 3 9.6 -75.5117 -137.206 -76.6807 0.00234875 0.00434092 0.00237851 12.9824 23.9923 13.1452
903 3 9.6 -62.4613 -32.3921 -32.0666 0.00191096 0.0009786 0.000815501 10.5589 5.40602 4.49904
906 3 9.6 -76.5108 -168.928 -21.3899 0.00254052 0.00511363 0.000856616 14.0473 28.2727 4.73497
916 3 9.6 -118.547 -19.6554 -64.8335 0.00340609 0.000564457 0.00201476 18.8185 3.11882 11.1394
925 3 9.6 -76.5128 -50.0762 -56.4531 0.00246709 0.0015805 0.00183877 13.638 8.73559 10.1657
930 3 9.6 -77.7373 -99.4696 -111.857 0.00274054 0.00321137 0.00353056 15.1575 17.7501 19.5223
933 3 9.6 -123.341 -99.085 -83.9888 0.00380106 0.00321884 0.00263248 21.0108 17.7921 14.5497
936 3 9.6 -54.0362 -51.2734 -161.392 0.0017384 0.00157102 0.00516015 9.61015 8.68002 28.5221
968 3 9.6 -61.3286 -132.852 -95.4475 0.00207228 0.00413369 0.00285849 11.4564 22.847 15.7902
969 3 9.6 -45.2816 -85.8811 -106.336 0.0013466 0.0028966 0.00362374 7.43975 16.0125 20.0349
972 3 9.6 -82.3018 -62.262 -49.7404 0.00260321 0.00204719 0.00176305 14.3902 11.3204 9.75013
989 3 9.6 -148.969 -49.7981 -83.836 0.00461891 0.00154113 0.00268774 25.5336 8.51961 14.8604
992 3 9.6 -111.418 -11.594 -45.4834 0.00352819 0.000143059 0.00144495 19.5023 0.786879 7.98619
1007 3 9.6 -100.943 -52.8796 -136.761 0.00317021 0.00186826 0.00437709 17.5246 10.3286 24.1962
1008 3 9.6 -93.5358 -50.5843 -37.7641 0.00314328 0.00161953 0.00114056 17.3909 8.95396 6.30988
1017 3 9.6 -18.1486 -16.9605 -176.154 0.000373061 0.00051418 0.00558789 2.05042 2.83495 30.895
1018 3 9.6 -79.2557 -46.1192 -132.249 0.00255743 0.00167313 0.00401491 14.1356 9.25439 22.1886
1019 3 9.6 -159.138 -14.7241 -48.4833 0.00504043 0.000196221 0.00149092 27.8645 1.07894 8.23833
1023 3 9.6 -79.5535 -66.632 -128.897 0.00277805 0.00192101 0.00400571 15.3719 10.6061 22.1414
1028 3 9.6 -41.2483 -130.744 -62.193 0.00126021 0.00422474 0.00201529 6.96543 23.3544 11.1398
1065 3 9.6 -96.9807 -101.789 -53.4411 0.00325826 0.0033541 0.00169523 18.0142 18.5434 9.37105
1077 3 9.6 -18.7363 -97.1157 -88.5608 0.000447813 0.00325545 0.00271312 2.46903 17.9983 14.9903
1085 3 9.6 -26.8202 -28.7901 -105.136 0.000813561 0.000917099 0.00329967 4.4953 5.06936 18.2431
1087 3 9.6 -94.1759 -57.4914 -99.7067 0.00306759 0.00182704 0.00337747 16.9558 10.0993 18.6756
1109 3 9.6 -28.4759 -158.718 -69.6696 0.000993797 0.00507446 0.00200393 5.49455 28.0485 11.0665
1121 3 9.6 -87.0322 -10.1093 -126.885 0.00267778 0.000369987 0.00381578 14.8052 2.04474 21.0854
1132 3 9.6 -1.75028 -69.7667 -65.9804 -0.000186736 0.00218501 0.00232776 -1.04562 12.0778 12.8709
1139 3 9.6 -135.118 -124.756 -2.25153 0.00429441 0.00372238 0.000153161 23.7378 20.5754 0.847351
1162 3 9.6 -64.5392 -151.408 -21.7611 0.00216956 0.00463976 0.0010308 12.0018 25.6317 5.71109
1170 3 9.6 -77.3146 -8.63898 -138.563 0.00225832 0.000332562 0.00428808 12.4748 1.84118 23.7029
1210 3 9.6 -1.43221 -79.4419 -118.592 -5.33487e-05 0.00237796 0.00354692 -0.302267 13.1414 19.5984
1215 3 9.6 -29.3917 -14.1477 -69.4177 0.000832555 0.000385696 0.00211987 4.5956 2.13416 11.7167
1218 3 9.6 -39.1963 -23.4198 -155.282 0.0014152 0.000848994 0.00482083 7.83235 4.69387 26.6449
1222 3 9.6 -117.266 -40.0846 -129.21 0.00390669 0.00130556 0.0039809 21.5993 7.2177 22.0008
1227 3 9.6 -16.1399 -2.17219 -27.8275 0.000544479 2.71041e-05 0.000601307 3.0083 0.146413 3.31679
1228 3 9.6 -77.6743 -77.9201 -95.1747 0.00259186 0.00245981 0.00312281 14.3306 13.5964 17.2621
1248 3 9.6 -45.0462 -152.141 -90.071 0.00148102 0.0048467 0.00296022 8.18834 26.8001 16.3629
1249 3 9.6 -61.4204 -46.7004 -132.318 0.00182499 0.00155605 0.00413818 10.0853 8.60614 22.8754
1259 3 9.6 -75.1915 -30.313 -166.118 0.00227272 0.00131062 0.0053602 12.5695 7.26134 29.649
1296 3 9.6 -67.0299 -21.6992 -51.6616 0.00220676 0.000634837 0.00162219 12.2009 3.50737 8.97019
1299 3 9.6 -20.4654 -71.5882 -11.3814 0.000629228 0.00230646 0.000294766 3.47602 12.7501 1.62505
1303 3 9.6 -70.5221 -114.893 -84.0126 0.00238207 0.0037714 0.00245845 13.1696 20.8479 13.5827
1332 3 9.6 -25.206 -27.2082 -176.078 0.000776878 0.00150447 0.00547165 4.28862 8.34155 30.24
1336 3 9.6 -16.0648 -0.338151 -165.127 0.000527409 -0.000285571 0.00533533 2.91505 -1.59688 29.5008
1337 3 9.6 -159.507 -60.6155 -61.2934 0.00490292 0.00207751 0.00208192 27.1014 11.4879 11.5089
1353 3 9.6 -30.0035 -38.6314 -32.5575 0.000915748 0.00120369 0.00109187 5.05904 6.65448 6.03317
1354 3 9.6 -1.56029 -92.3531 -113.722 -9.86936e-05 0.00303945 0.00358892 -0.552722 16.8026 19.8338
1355 3 9.6 -61.8581 -104.671 -57.8297 0.00195558 0.00328841 0.0020994 10.8112 18.1761 11.6103
1370 3 9.6 -5.49727 -23.1035 -117.31 0.000132268 0.000854178 0.0036713 0.731853 4.7283 20.2911
1375 3 9.6 -50.3626 -36.4818 -153.434 0.00164018 0.0013743 0.00479524 9.06918 7.59968 26.5044
1378 3 9.6 -41.7206 -17.9347 -177.043 0.00178376 0.000551445 0.00536832 9.88369 3.04708 29.6748
1383 3 9.6 -48.8275 -59.4376 -16.3212 0.00155674 0.0018626 0.000453714 8.6045 10.2943 2.50599
1391 3 9.6 -7.11345 -82.8275 -127.889 0.000365747 0.00274472 0.00415745 2.02702 15.1771 22.9856
1392 3 9.6 -39.1336 -80.2313 -96.0641 0.00115402 0.00264066 0.00332871 6.37749 14.5999 18.4129
1412 3 9.6 -38.5023 -104.872 -96.9329 0.00123219 0.00357277 0.00312578 6.812 19.7557 17.2796
1422 3 9.6 -20.9295 -22.0306 -64.8219 0.000482631 0.000713068 0.00203709 2.66246 3.94377 11.2603
1424 3 9.6 -48.1487 -163.045 -21.1383 0.00142275 0.00511701 0.000752958 7.85783 28.2881 4.16387
1435 3 9.6 -4.25894 -162.636 -16.0912 0.000316349 0.00477328 0.000504576 1.76346 26.3729 2.78809
1444 3 9.6 -64.8657 -65.3801 -37.3545 0.00189569 0.00219504 0.00107526 10.4717 12.1364 5.93807
1450 3 9.6 -92.8798 -29.9676 -122.769 0.00274484 0.000938047 0.00371947 15.1642 5.18383 20.5568
1455 3 9.6 -76.0926 -26.8792 -115.038 0.00250233 0.000748316 0.00372387 13.8341 4.13525 20.5881
1458 3 9.6 -37.1796 -47.522 -21.2205 0.00102116 0.00152705 0.000710047 5.63862 8.44273 3.92273
1460 3 9.6 -149.221 -8.64676 -77.6373 0.0048151 0.000279206 0.00251106 26.6219 1.54471 13.8839
1469 3 9.6 -60.5774 -98.468 -18.4007 0.00186219 0.00304929 0.000436996 10.2928 16.8555 2.4148
1470 3 9.6 -117.645 -65.7082 -88.2552 0.00376622 0.00225412 0.00297442 20.8208 12.4659 16.4486
1475 3 9.6 -57.1148 -133.98 -33.0787 0.00178409 0.00424181 0.00111458 9.86222 23.4496 6.16222
1477 3 9.6 -83.2713 -24.5606 -55.9794 0.00263857 0.000674849 0.0018714 14.585 3.7243 10.3486
1487 3 9.6 -41.8883 -78.8327 -159.701 0.00125372 0.00252278 0.00491039 6.92893 13.9438 27.1396
1488 3 9.6 -114.22 -30.8644 -77.4616 0.00366026 0.000968923 0.00238983 20.2361 5.35233 13.2117
1490 3 9.6 -103.009 -85.9985 -30.4952 0.00344728 0.00285389 0.0010335 19.0649 15.7774 5.70835
1500 3 9.6 -21.5167 -118.31 -93.7976 0.000733327 0.00361086 0.00295761 4.05025 19.9552 16.3511
1518 3 9.6 -3.07207 -12.7277 -171.397 -0.000109107 0.000202916 0.00554185 -0.602112 1.11439 30.6457
1519 3 9.6 -24.0817 -135.94 -74.9211 0.00063832 0.00411237 0.00230465 3.52344 22.7267 12.7392
1524 3 9.6 -147.679 -69.4982 -56.5369 0.00474876 0.00239695 0.00198648 26.2554 13.2497 10.9852
1526 3 9.6 -52.0727 -90.5024 -25.1967 0.00168472 0.00282767 0.000893211 9.31355 15.6296 4.93446
1532 3 9.6 -17.4158 -75.8732 -52.9907 0.000537155 0.00251552 0.00149272 2.96958 13.909 8.24106
1536 3 9.6 -3.52352 -34.5596 -155.646 0.000279941 0.00145993 0.00475444 1.5588 8.08139 26.2733
1545 3 9.6 -70.9271 -58.5223 -158.533 0.00216035 0.00183139 0.00482496 11.9404 10.1235 26.6673
1547 3 9.6 -72.6362 -39.7215 -61.014 0.00227236 0.00113516 0.00190517 12.5574 6.27227 10.5334
1562 3 9.6 -79.1689 -125.299 -16.5143 0.00255837 0.0039741 0.000486732 14.1435 21.9694 2.68851
1566 3 9.6 -19.0596 -129.654 -107.992 0.0005397 0.00382725 0.00352443 2.98394 21.1489 19.4864
1567 3 9.6 -92.6989 -94.6489 -97.3923 0.0030341 0.00288854 0.0031804 16.7763 15.9611 17.5819
1568 3 9.6 -31.0406 -66.4437 -24.652 0.00115762 0.00200092 0.00091148 6.40818 11.0609 5.04278
1575 3 9.6 -29.8758 -95.1022 -7.46093 0.000898541 0.00305443 6.40478e-05 4.96181 16.8867 0.346647
1580 3 9.6 -118.444 -102.479 -32.8905 0.00383351 0.00327948 0.00131352 21.1953 18.128 7.27241
1582 3 9.6 -23.8667 -156.714 -80.8047 0.000647668 0.00482752 0.00257369 3.5756 26.686 14.228
1584 3 9.6 -64.7529 -148.479 -48.4522 0.00203249 0.00468302 0.00165174 11.232 25.8901 9.13351
1588 3 9.6 -39.8749 -29.7199 -135.752 0.00146212 0.00113827 0.00413646 8.08577 6.29822 22.8582
1593 3 9.6 -70.0997 -84.3937 -131.059 0.00218819 0.00296384 0.00433506 12.096 16.3955 23.9657
1604 3 9.6 -83.1677 -149.298 -0.399182 0.00284336 0.00468563 4.28668e-05 15.7203 25.9025 0.230633
1610 3 9.6 -59.7981 -53.6829 -47.484 0.00160447 0.0016933 0.00152427 8.86019 9.36175 8.4235
1611 3 9.6 -58.4892 -0.562417 -142.882 0.00214584 -8.10111e-05 0.00445258 11.8724 -0.447592 24.6182
1628 3 9.6 -43.259 -67.2802 -39.8941 0.00145902 0.00207854 0.00125107 8.06653 11.4902 6.91353
1644 3 9.6 -52.9133 -61.9562 -155.919 0.00159378 0.00217637 0.0048015 8.80942 12.0365 26.5347
1645 3 9.6 -40.9585 -97.4705 -5.16354 0.00152768 0.00324076 -2.79053e-05 8.45519 17.9197 -0.161093
1655 3 9.6 -78.3157 -77.728 -76.0059 0.00237483 0.00259091 0.00239924 13.1257 14.3229 13.2633
1670 3 9.6 -88.4186 -121.628 -49.1109 0.00286376 0.00395527 0.00175174 15.8305 21.865 9.68766
1672 3 9.6 -63.5752 -88.1014 -95.0174 0.00205246 0.00262746 0.00312582 11.3459 14.5195 17.2863
1674 3 9.6 -145.228 -3.06704 -14.3893 0.00443593 1.02657e-05 0.000398007 24.5177 0.0547364 2.19603
1679 3 9.6 -124.877 -46.9963 -89.9594 0.00399323 0.00146842 0.00304587 22.0729 8.11903 16.8447
1680 3 9.6 -90.3257 -31.1421 -44.1241 0.00305792 0.00096968 0.00133684 16.9099 5.35953 7.38913
1685 3 9.6 -90.6935 -13.6741 -63.2855 0.00294557 0.000270741 0.00201334 16.2867 1.49249 11.1286
1688 3 9.6 -11.0343 -77.4603 -34.8436 0.000531974 0.00263974 0.00108567 2.95343 14.6096 6.00546
1690 3 9.6 -58.162 -115.505 -45.4287 0.00203924 0.00365242 0.00169807 11.2877 20.188 9.39484
1697 3 9.6 -116.727 -106.398 -5.45918 0.0037579 0.0034765 0.000415269 20.7744 19.2215 2.30295
1704 3 9.6 -113.053 -34.3002 -51.3935 0.00353695 0.000860401 0.00160587 19.5511 4.74987 8.87506
1709 3 9.6 -67.707 -80.6447 -50.933 0.00200292 0.00269404 0.0017326 11.0678 14.8973 9.58111
1715 3 9.6 -138.878 -104.41 -17.3598 0.00453833 0.0034674 0.000619325 25.0913 19.169 3.42597
1722 3 9.6 -124.608 -12.5595 -16.3209 0.00386069 0.000477499 0.000503104 21.3394 2.64047 2.78067
1723 3 9.6 -27.1508 -121.267 -76.6889 0.00081641 0.00368582 0.00259905 4.50715 20.3691 14.367
1736 3 9.6 -86.0636 -6.81836 -104.434 0.00244722 0.000248891 0.00359261 13.5137 1.37627 19.8686
1745 3 9.6 -22.8061 -4.18088 -105.929 0.000816045 0.000236511 0.00325337 4.51829 1.3098 17.9785
1751 3 9.6 -38.4162 -83.0844 -51.6595 0.00149637 0.00277561 0.0017145 8.27677 15.3543 9.47738
1761 3 9.6 -89.2496 -116.179 -106.761 0.00266373 0.00362534 0.00360216 14.7152 20.0443 19.92
1762 3 9.6 -1.90907 -174.701 -47.6533 6.38464e-05 0.00534117 0.00143823 0.351025 29.5239 7.94759
1775 3 9.6 -25.0007 -60.4729 -16.9848 0.000806506 0.00160712 0.000344618 4.45953 8.8728 1.89774
1776 3 9.6 -105.12 -64.196 -14.1959 0.00332521 0.00198194 0.000569035 18.3851 10.9529 3.14672
1779 3 9.6 -72.5582 -78.2449 -26.0081 0.00203099 0.00253304 0.000699702 11.2139 14.003 3.86252
1782 3 9.6 -153.91 -29.3516 -49.5572 0.00485916 0.000909751 0.00149989 26.8607 5.0298 8.28985
1785 3 9.6 -64.8505 -48.6612 -2.69144 0.00200415 0.00139615 0.000110559 11.0795 7.71381 0.611445
1786 3 9.6 -111.966 -79.423 -77.5572 0.00362565 0.00273847 0.00258625 20.0455 15.1443 14.3006
1816 3 9.6 -57.0853 -134.83 -106.112 0.00165239 0.00423291 0.00351592 9.13161 23.3969 19.4409
1826 3 9.6 -23.318 -34.8227 -84.5855 0.000660125 0.000973163 0.002849 3.64524 5.37641 15.754
1844 3 9.6 -128.324 -36.6145 -23.366 0.0039409 0.000834643 0.000624608 21.7829 4.60572 3.45247
1849 3 9.6 -58.9782 -165.839 -29.7481 0.00196183 0.00527267 0.00120246 10.846 29.1514 6.65636
1876 3 9.6 -151.036 -29.2969 -99.1148 0.00471903 0.000922114 0.00287988 26.0933 5.09527 15.9076
1879 3 9.6 -72.1719 -24.1519 -70.9423 0.00237693 0.000663948 0.002233 13.1388 3.6675 12.3451
1883 3 9.6 -5.94528 -126.298 -29.1718 0.000208085 0.00382827 0.00104569 1.15752 21.1578 5.78172
1903 3 9.6 -113.648 -106.435 -23.3228 0.00346549 0.00353087 0.000692811 19.1538 19.524 3.8247
1916 3 9.6 -69.2753 -2.73937 -166.23 0.00226634 -6.33058e-05 0.00512103 12.5304 -0.352479 28.3031
1917 3 9.6 -14.7359 -161.759 -43.6783 0.000509085 0.00492584 0.00140823 2.81612 27.226 7.78576
1926 3 9.6 -109.162 -62.4151 -58.7115 0.0034774 0.00199349 0.00189671 19.222 11.0207 10.4846
1929 3 9.6 -99.7815 -68.2754 -81.4977 0.0032489 0.00220422 0.00280967 17.961 12.1857 15.5386
1939 3 9.6 -136.709 -98.1405 -50.9842 0.00435901 0.00311584 0.00165785 24.0943 17.2225 9.16436
1940 3 9.6 -14.7791 -129.946 -91.3437 0.000438999 0.00390147 0.00288703 2.4254 21.5575 15.9587
1944 3 9.6 -15.1743 -43.2703 -146.859 0.000511461 0.0019412 0.00448386 2.82925 10.7463 24.7799
1954 3 9.6 -135.292 -117.036 -38.7216 0.00422089 0.0035667 0.00122471 23.3288 19.7143 6.76903
1955 3 9.6 -61.3376 -15.449 -148.558 0.0019777 0.000434811 0.00446632 10.933 2.39811 24.6842
1965 3 9.6 -38.5783 -57.3642 -166.69 0.00104207 0.00193348 0.00523901 5.75751 10.6887 28.9568
1966 3 9.6 -46.7808 -49.8084 -80.7287 0.00163514 0.00152187 0.00254083 9.03777 8.4093 14.05
1969 3 9.6 -101.699 -22.2226 -150.034 0.00315341 0.000723118 0.00467195 17.429 3.99886 25.8251
1972 3 9.6 -71.1448 -142.703 -5.46055 0.00234082 0.00441549 0.000105274 12.9456 24.4022 0.580065
1982 3 9.6 -109.816 -9.17991 -74.8583 0.00345377 0.000194675 0.00220302 19.0921 1.07607 12.172
1985 3 9.6 -66.0902 -162.688 -47.1946 0.00200768 0.00514891 0.00149332 11.096 28.4639 8.25494
1986 3 9.6 -90.3084 -89.548 -10.3039 0.00292667 0.00279621 0.000243661 16.1802 15.456 1.34667
1987 3 9.6 -26.4707 -37.6842 -163.326 0.00086643 0.00167746 0.00527194 4.79111 9.28371 29.146
1989 3 9.6 -158.656 -23.5842 -85.4292 0.00510618 0.000665691 0.00265444 28.2293 3.68204 14.6748
1990 3 9.6 -98.3471 -132.158 -10.8927 0.00300787 0.00447606 0.000476184 16.6271 24.7474 2.63549
1998 3 9.6 -128.337 -84.31 -69.0573 0.0041276 0.00277208 0.00253831 22.821 15.3292 14.0431
2000 3 9.6 -46.1169 -125.164 -72.4517 0.0014513 0.00359359 0.00246964 8.02567 19.8544 13.6496
2005 3 9.6 -147.528 -74.4023 -44.9492 0.00464671 0.00254376 0.00135285 25.6886 14.071 7.47788
2006 3 9.6 -10.2094 -103.734 -67.03 0.000294966 0.003515 0.00224242 1.63068 19.4355 12.3979
2011 3 9.6 -36.546 -115.931 -60.8929 0.00129659 0.00374089 0.0022582 7.17575 20.6927 12.4972
2017 3 9.6 -98.5648 -150.564 -33.7607 0.00309586 0.00460794 0.000979928 17.1118 25.4698 5.41702
2021 3 9.6 -52.1807 -35.7513 -102.556 0.00151071 0.00118909 0.00331759 8.34691 6.58015 18.3411
2031 3 9.6 -54.2892 -95.4542 -146.62 0.00139456 0.00304194 0.00457699 7.70566 16.8193 25.2971
2036 3 9.6 -47.98 -43.8284 -91.1363 0.0013902 0.00126208 0.00297064 7.68821 6.9746 16.4238
2061 3 9.6 -42.2653 -89.1198 -15.7859 0.00155413 0.00284143 0.000467271 8.60098 15.7077 2.58424
2082 3 9.6 -169.691 -55.0257 -53.4858 0.00518054 0.00187269 0.0017039 28.6385 10.356 9.41664
2086 3 9.6 -12.9222 -14.5895 -55.6758 0.000316469 0.000508938 0.00198895 1.75104 2.81786 11.0078
2104 3 9.6 -173.97 -22.342 -22.4284 0.00528782 0.000879558 0.00122927 29.2181 4.86963 6.81112
2107 3 9.6 -171.348 -55.7072 -8.75861 0.00546375 0.00191156 0.000116976 30.2054 10.5652 0.647418
2109 3 9.6 -20.7476 -53.099 -123.467 0.000524366 0.00178286 0.00415964 2.8936 9.85753 22.999
2120 3 9.6 -5.80261 -11.3357 -124.23 0.000156641 0.000407498 0.0040201 0.864672 2.25627 22.2187
2155 3 9.6 -46.3855 -110.951 -119.993 0.00116719 0.00369324 0.00385207 6.44643 20.4182 21.2913
2160 3 9.6 -70.6959 -29.796 -154.23 0.00209899 0.00127722 0.00467382 11.5923 7.07463 25.8168
2165 3 9.6 -37.5115 -22.3771 -71.1935 0.00132464 0.000841211 0.0023363 7.32744 4.65704 12.9168
2171 3 9.6 -68.0278 -17.5088 -126.782 0.00208395 0.000452619 0.00391416 11.5189 2.499 21.6361
2181 3 9.6 -32.6402 -31.4109 -13.7384 0.000956248 0.000994203 0.000170356 5.28106 5.49655 0.932235
2190 3 9.6 -169.746 -29.2548 -53.9301 0.00532911 0.000711601 0.00158634 29.4581 3.93308 8.7652
2194 3 9.6 -104.138 -48.0988 -21.9931 0.00333643 0.00148269 0.000616409 18.4457 8.18912 3.40293
2200 3 9.6 -69.0958 -129.359 -41.7386 0.00223919 0.00400694 0.00128633 12.3784 22.1495 7.10482
2210 3 9.6 -130.924 -29.3119 -107.357 0.00400427 0.00113316 0.00359693 22.14 6.27059 19.891
2211 3 9.6 -147.879 -20.7436 -3.5158 0.00439741 0.000596854 0.000229427 24.2988 3.29499 1.27159
2223 3 9.6 -106.335 -132.133 -31.3104 0.00349827 0.00430312 0.000962408 19.3415 23.7855 5.31988
2233 3 9.6 -81.561 -60.4692 -63.8375 0.00256853 0.00211378 0.002319 14.2024 11.6903 12.8262
2235 3 9.6 -108.318 -31.5105 -126.454 0.00349881 0.00105708 0.00377977 19.3477 5.84555 20.8879
2236 3 9.6 -93.6029 -39.7724 -59.7868 0.0030245 0.00115526 0.0018665 16.7233 6.38381 10.3182
2240 3 9.6 -48.1781 -7.77367 -23.1458 0.00138248 0.000186093 0.000510736 7.63859 1.02167 2.82113
2243 3 9.6 -34.2536 -97.3342 -53.2747 0.00116696 0.00287689 0.00171386 6.4528 15.8865 9.46866
2246 3 9.6 -9.01011 -40.5888 -67.7296 7.81994e-05 0.00113324 0.00220555 0.423522 6.26083 12.1965
2261 3 9.6 -47.513 -44.2401 -15.7068 0.00152679 0.00142967 0.000301248 8.44043 7.90669 1.65816
2263 3 9.6 -53.3545 -25.6467 -109.838 0.00170593 0.000672568 0.00384283 9.4284 3.71439 21.2533
2264 3 9.6 -144.855 -87.3616 -7.55792 0.0045435 0.00299174 0.000232653 25.1149 16.5407 1.28532
2288 3 9.6 -107.877 -124.103 -54.3403 0.0035327 0.00381782 0.00170443 19.531 21.0992 9.42284
2298 3 9.6 -35.9659 -166.466 -50.7265 0.00125698 0.00521448 0.00174779 6.94901 28.8214 9.66291
2306 3 9.6 -21.7437 -103.911 -98.6999 0.000618224 0.00354535 0.00324878 3.41482 19.6149 17.9606
2340 3 9.6 -42.7671 -110.814 -42.3617 0.00138444 0.00318408 0.00151314 7.65197 17.5844 8.3705
2344 3 9.6 -61.7297 -86.4204 -146.515 0.00183941 0.00268085 0.00459663 10.1684 14.8148 25.408
2355 3 9.6 -149.459 -61.2169 -77.7149 0.00466896 0.00220414 0.00249853 25.8095 12.1882 13.8099
2358 3 9.6 -80.3607 -107.472 -31.9076 0.00258869 0.00357878 0.000827597 14.3098 19.7904 4.56683
2363 3 9.6 -53.7176 -25.4347 -84.5128 0.00148217 0.000856146 0.00261747 8.18581 4.73381 14.4673
2377 3 9.6 -60.1156 -1.00112 -70.3876 0.00191743 -0.000138375 0.0022045 10.5959 -0.771476 12.1827
2391 3 9.6 -23.6697 -113.418 -110.443 0.000804755 0.00358853 0.0037146 4.44524 19.8379 20.534
2399 3 9.6 -15.0129 -168.884 -77.3532 0.000427713 0.00520492 0.00216926 2.36252 28.7768 11.9844
2417 3 9.6 -84.5832 -32.5889 -84.7123 0.00264813 0.00102587 0.00291433 14.6348 5.67152 16.1171
2430 3 9.6 -4.60966 -73.1888 -134.29 8.62375e-05 0.00210613 0.00439208 0.478579 11.6348 24.2813
2450 3 9.6 -1.89248 -41.8528 -88.4207 0.000140578 0.00130249 0.00273788 0.774591 7.19842 15.1349
2452 3 9.6 -9.52683 -183.836 -28.1236 0.000470191 0.00563006 0.000914087 2.60148 31.1235 5.05452
2471 3 9.6 -115.753 -29.1589 -109.309 0.00346947 0.0012015 0.00362413 19.1763 6.65137 20.0412
2481 3 9.6 -134.342 -46.4814 -17.7484 0.00422124 0.00125749 0.000393195 23.336 6.94392 2.16813
2486 3 9.6 -113.3 -92.0594 -18.8236 0.00348616 0.00279484 0.000643281 19.2658 15.4466 3.55584
2491 3 9.6 -134.953 -12.0514 -7.49941 0.00415706 0.000380048 0.000157944 22.9778 2.10314 0.872611
2504 3 9.6 -103.092 -8.17393 -0.22877 0.00302642 5.5952e-05 0.000213777 16.7219 0.299174 1.18769
2508 3 9.6 -63.2037 -64.0654 -131.496 0.00169045 0.00178902 0.00422904 9.33331 9.87107 23.3811
2514 3 9.6 -123.095 -57.6518 -50.4612 0.00390445 0.00168077 0.00164117 21.5794 9.28863 9.06809
2521 3 9.6 -53.0246 -143.895 -89.7201 0.00199375 0.00448141 0.00284652 11.0298 24.7659 15.7346
2525 3 9.6 -21.2397 -122.545 -31.4551 0.000472348 0.00392108 0.000903701 2.59875 21.6781 4.99039
2526 3 9.6 -109.188 -93.6204 -5.13731 0.00329708 0.00285485 0.000225766 18.2226 15.7737 1.24951
2532 3 9.6 -99.6266 -104.854 -90.0899 0.00342449 0.00321909 0.00257533 18.9313 17.7904 14.2291
2541 3 9.6 -31.988 -154.141 -56.3256 0.00115222 0.00485682 0.00186806 6.36809 26.8491 10.3294
2544 3 9.6 -170.316 -34.3559 -66.5123 0.00528259 0.000993247 0.00208981 29.2053 5.48834 11.5511