ITEM: TIMESTEP
14400
ITEM: NUMBER OF ATOMS
6100
ITEM: BOX BOUNDS ff ff ff
-1.0000000000000000e+03 1.0000000000000000e+03
-1.0000000000000000e+03 1.0000000000000000e+03
-1.0000000000000000e+03 1.0000000000000000e+03
ITEM: ATOMS id type diameter x y z vx vy vz fx fy fz
3 1 7.68 -173.881 -22.9203 -44.2587 0.00627782 0.000584435 0.0014721 15.5766 1.44938 3.65158
10 1 7.68 -56.0827 -113.289 -92.9635 0.00171777 0.00426891 0.00338454 4.2579 10.596 8.39766
20 1 7.68 -155.236 -37.4065 -89.703 0.00545565 0.00148979 0.00314371 13.5381 3.6978 7.80019
25 1 7.68 -96.4472 -35.8982 -150.739 0.00365235 0.0012368 0.00533729 9.06772 3.06547 13.2427
30 1 7.68 -4.91084 -23.9219 -19.9684 0.000308105 0.00106471 0.000182066 0.771441 2.64877 0.443209
35 1 7.68 -109.132 -74.2088 -10.8339 0.0040804 0.00282027 0.000542237 10.1266 7.0004 1.3449
44 1 7.68 -149.933 -88.9314 -61.4834 0.00509115 0.00325678 0.00227568 12.6309 8.0808 5.64561
57 1 7.68 -47.6457 -112.799 -3.83866 0.00176888 0.0037925 0.00021383 4.39117 9.40483 0.531566
62 1 7.68 -115.448 -26.8125 -6.6784 0.00410692 0.000877911 0.000451985 10.1894 2.17926 1.12463
67 1 7.68 -27.9669 -69.9435 -126.411 0.00070807 0.00255223 0.00469258 1.75197 6.33268 11.649
72 1 7.68 -87.2404 -129.356 -81.82 0.00303836 0.00467191 0.0027959 7.54015 11.592 6.93338
79 1 7.68 -9.927 -129.708 -59.3217 0.000217445 0.0046697 0.00224108 0.537088 11.5858 5.56176
93 1 7.68 -163.03 -35.6498 -19.2461 0.00568355 0.00122194 0.00090553 14.1015 3.02856 2.24694
122 1 7.68 -74.2095 -76.3311 -62.3704 0.00268634 0.00296249 0.00240751 6.66537 7.35446 5.97929
125 1 7.68 -56.831 -20.1324 -166.478 0.00196407 0.000879364 0.00607205 4.87028 2.18061 15.0693
127 1 7.68 -79.2407 -31.9778 -13.1883 0.00283806 0.000848462 0.000148518 7.04368 2.10332 0.364414
149 1 7.68 -123.897 -113.463 -68.1673 0.00452126 0.00401371 0.00247664 11.2172 9.95628 6.14451
150 1 7.68 -68.5557 -105.473 -93.0225 0.00251433 0.00389403 0.00313453 6.24126 9.66605 7.7742
157 2 8.64 -61.5342 -74.9619 -17.7296 0.00208098 0.00285812 0.000504933 7.35046 10.1006 1.78371
162 2 8.64 -13.6857 -107.561 -149.98 0.000704292 0.00355523 0.00524191 2.48706 12.5528 18.5109
166 2 8.64 -37.7726 -31.7212 -119.227 0.00133306 0.00109171 0.00439224 4.70817 3.85543 15.5221
178 2 8.64 -93.896 -17.9971 -101.66 0.00332704 0.00103074 0.003885 11.752 3.65164 13.7318
187 2 8.64 -32.3252 -105.448 -139.844 0.00121937 0.00367485 0.00488226 4.30609 12.9788 17.2426
193 2 8.64 -119.914 -60.1277 -108.233 0.00423577 0.00229375 0.0040567 14.9622 8.10434 14.3324
208 2 8.64 -62.8651 -129.875 -56.688 0.00230841 0.0047642 0.00251223 8.15123 16.8304 8.88556
215 2 8.64 -134.963 -9.15564 -51.4008 0.00470336 0.000142589 0.00167866 16.6152 0.500882 5.92431
230 2 8.64 -94.7378 -58.7442 -46.4085 0.00367782 0.00212782 0.00178916 13.003 7.51521 6.32055
237 2 8.64 -111.271 -17.2032 -26.9421 0.00402882 0.000721061 0.000871647 14.2335 2.54446 3.07682
253 2 8.64 -34.7891 -144.729 -20.9819 0.00142504 0.00497312 0.000706344 5.0364 17.5663 2.49342
255 2 8.64 -35.972 -41.0952 -52.1921 0.00142768 0.00103591 0.00147119 5.05986 3.63622 5.17704
256 2 8.64 -26.3383 -90.5733 -75.5985 0.00113293 0.003735 0.00280551 4.00851 13.2129 9.91451
257 2 8.64 -28.0907 -142.223 -1.78667 0.000863585 0.00513891 0.000389454 3.0489 18.1583 1.38539
265 2 8.64 -61.0338 -116.632 -66.4745 0.00231943 0.00423692 0.00260044 8.19516 14.9691 9.19397
276 2 8.64 -129.998 -38.4389 -46.8066 0.00467918 0.00133036 0.00159443 16.5313 4.69621 5.62888
288 2 8.64 -115.411 -21.4656 -39.8335 0.00418776 0.000769353 0.00130126 14.7984 2.7174 4.59178
296 2 8.64 -32.1846 -71.2328 -88.1448 0.00103483 0.00288275 0.00354064 3.6555 10.1967 12.5224
305 2 8.64 -8.04535 -90.7575 -48.8819 0.000257286 0.00364168 0.00183121 0.910235 12.8764 6.47124
307 2 8.64 -112.713 -113.888 -64.6673 0.00406054 0.00411553 0.00237449 14.3453 14.5388 8.3898
315 2 8.64 -4.16488 -104.438 -102.226 3.94298e-05 0.00391001 0.00388162 0.134559 13.816 13.7155
321 2 8.64 -48.9357 -108.945 -22.1016 0.00171246 0.00385182 0.000539961 6.04986 13.6054 1.90084
323 2 8.64 -57.444 -30.4023 -128.585 0.00193674 0.0010423 0.00464684 6.83832 3.68194 16.4156
328 2 8.64 -91.6564 -65.6782 -36.739 0.00356139 0.00236512 0.000985209 12.5951 8.35823 3.47223
340 2 8.64 -102.702 -55.9988 -79.4804 0.0036075 0.00213769 0.00311374 12.7437 7.55961 11.0063
352 2 8.64 -73.2381 -6.27125 -60.5787 0.00277175 4.07986e-05 0.00217111 9.79461 0.140173 7.66931
360 2 8.64 -167.828 -12.6768 -65.1211 0.00607364 0.000147118 0.0023286 21.4595 0.515589 8.22557
364 2 8.64 -146.421 -14.956 -18.3419 0.00511692 0.000715568 0.000679691 18.0769 2.53132 2.40228
366 2 8.64 -17.952 -62.2186 -164.693 0.000778758 0.00221545 0.00584059 2.75128 7.82207 20.6303
378 2 8.64 -20.1176 -12.7725 -82.5254 0.000554145 0.000765786 0.00299032 1.95196 2.70905 10.5656
381 2 8.64 -50.447 -71.2694 -141.571 0.00160193 0.00264169 0.00520077 5.65445 9.32993 18.3756
394 2 8.64 -75.7158 -38.6714 -29.6748 0.00256371 0.00148697 0.000618939 9.05055 5.25991 2.17297
396 2 8.64 -36.501 -76.442 -72.2866 0.0017152 0.00308902 0.0025253 6.07668 10.9297 8.92382
410 2 8.64 -128.192 -64.9184 -69.3858 0.00455788 0.00267254 0.00285808 16.1052 9.44371 10.1004
413 2 8.64 -30.0698 -53.0351 -4.15852 0.00102611 0.00164074 -0.000114276 3.62386 5.79091 -0.40844
431 2 8.64 -12.4927 -0.725586 -4.67323 0.000537443 -7.63911e-05 0.000293102 1.90217 -0.271938 1.0415
445 2 8.64 -59.9211 -79.4304 -122.887 0.00174695 0.00282728 0.00460233 6.16289 9.99691 16.2605
449 2 8.64 -31.0354 -44.7987 -107.086 0.00105569 0.00141135 0.00389657 3.72729 4.97663 13.7685
450 2 8.64 -43.727 -175.675 -10.3347 0.00154849 0.00628716 0.000391517 5.46762 22.215 1.38313
476 3 9.6 -9.73879 -1.29559 -71.3454 0.00043456 3.33193e-05 0.00259015 2.10639 0.160203 12.5506
480 3 9.6 -30.5514 -4.30419 -127.067 0.00118614 0.000133983 0.00441122 5.74932 0.648857 21.3675
485 3 9.6 -133.86 -23.231 -55.9531 0.00469304 0.000634784 0.00160485 22.7429 3.05984 7.75633
509 3 9.6 -89.1731 -151.359 -18.3052 0.00336967 0.00533383 0.000716685 16.3347 25.8468 3.47403
514 3 9.6 -23.5969 -73.0366 -78.0418 0.000608391 0.00296599 0.00322721 2.93722 14.3947 15.6621
518 3 9.6 -137.5 -53.8565 -38.8799 0.00476144 0.00168562 0.00147103 23.0692 8.16317 7.13153
519 3 9.6 -79.1638 -93.242 -4.34781 0.00280134 0.00338437 0.000112128 13.5734 16.4016 0.540501
521 3 9.6 -144.465 -54.28 -96.3881 0.00506389 0.00217675 0.00346038 24.5393 10.551 16.77
529 3 9.6 -26.2242 -109.357 -65.8488 0.000666336 0.00405192 0.00301594 3.20972 19.6451 14.6565
530 3 9.6 -145.321 -46.5606 -63.5068 0.00533924 0.00195789 0.00242528 25.8832 9.50459 11.7498
552 3 9.6 -99.0011 -37.7565 -86.5206 0.00358584 0.0013939 0.00360792 17.3857 6.75796 17.4956
554 3 9.6 -51.0971 -34.4937 -49.0269 0.00176261 0.00130221 0.00184418 8.53147 6.31465 8.93541
561 3 9.6 -54.5603 -57.0837 -91.9591 0.00205569 0.00200904 0.00346779 9.96328 9.73108 16.8122
564 3 9.6 -75.4881 -140.05 -41.6928 0.00292278 0.00507916 0.0015371 14.1738 24.619 7.44642
573 3 9.6 -67.1512 -2.68293 -103.908 0.00234625 -0.00015909 0.00405721 11.372 -0.781458 19.6782
609 3 9.6 -102.344 -51.9038 -65.5193 0.00355484 0.00192755 0.00239751 17.2222 9.34294 11.6211
626 3 9.6 -162.945 -27.8401 -35.7429 0.0058551 0.000955031 0.00120934 28.3787 4.62401 5.85356
627 3 9.6 -54.5197 -87.266 -77.9154 0.00185113 0.00338852 0.00257158 8.96287 16.4259 12.4551
639 3 9.6 -46.5632 -7.35487 -58.8725 0.0016767 0.000125804 0.00202049 8.12748 0.610007 9.78911
660 3 9.6 -147.824 -11.3416 -104.911 0.00524651 0.000137912 0.00388829 25.4277 0.66482 18.8451
669 3 9.6 -39.5805 -52.5032 -153.574 0.00128309 0.00221768 0.00546391 6.21449 10.7473 26.4739
689 3 9.6 -169.434 -28.9165 -12.0577 0.00571954 0.00114637 0.000395992 27.7037 5.57675 1.91303
697 3 9.6 -148.383 -6.06843 -30.2886 0.00534352 0.000291402 0.00113711 25.8969 1.41762 5.51206
722 3 9.6 -40.6471 -174.247 -35.0738 0.00157931 0.00620375 0.00143385 7.65364 30.0675 6.95229
724 3 9.6 -45.3206 -86.5793 -129.595 0.00134307 0.00317062 0.00488911 6.49534 15.3651 23.6941
726 3 9.6 -164.128 -41.1289 -74.6921 0.00560679 0.00160031 0.0028086 27.1705 7.75819 13.6189
731 3 9.6 -58.5719 -14.0207 -49.3554 0.00204839 0.000188484 0.00184892 9.92004 0.906251 8.96322
732 3 9.6 -3.26588 -37.9528 -8.45667 0.000426988 0.00120877 3.07209e-05 2.08187 5.85199 0.142506
738 3 9.6 -78.5529 -46.0434 -144.239 0.0026358 0.00201325 0.00532901 12.7729 9.75955 25.8319
742 3 9.6 -129.801 -94.282 -19.6086 0.00487135 0.00344877 0.000992199 23.6127 16.7137 4.82046
758 3 9.6 -1.69145 -129.923 -100.562 -8.84214e-05 0.00419928 0.00359634 -0.432167 20.3357 17.43
763 3 9.6 -65.2182 -136.455 -18.4794 0.00256667 0.00481427 0.000678423 12.4451 23.3308 3.28532
770 3 9.6 -74.2855 -1.66053 -90.3259 0.0025925 1.56117e-05 0.0032521 12.56 0.0758109 15.7651
773 3 9.6 -33.1742 -98.3953 -113.843 0.0011835 0.00369224 0.0044099 5.73239 17.8967 21.3774
781 3 9.6 -22.204 -137.161 -22.7135 0.000836352 0.00470832 0.000782456 4.05297 22.8036 3.79616
784 3 9.6 -153.657 -93.0099 -19.5617 0.00536154 0.00362123 0.000849539 25.9816 17.557 4.11743
787 3 9.6 -49.6039 -97.2747 -57.4356 0.00196473 0.00339497 0.00224772 9.52911 16.4489 10.901
788 3 9.6 -93.4666 -42.232 -29.5451 0.00365738 0.00122532 0.000754712 17.7411 5.92482 3.63491
827 3 9.6 -161.605 -23.369 -66.9072 0.00577204 0.000618661 0.00246079 27.9724 2.99808 11.9272
828 3 9.6 -20.1887 -87.3212 -15.3017 0.000544869 0.00311413 0.000409922 2.63676 15.0896 1.98053
829 3 9.6 -25.0517 -89.7636 -136.781 0.000949208 0.00332975 0.00507688 4.59835 16.1373 24.5993
846 3 9.6 -168.83 -42.8455 -51.6685 0.00596821 0.00139959 0.00174582 28.9229 6.77996 8.45847
863 3 9.6 -47.6941 -35.2388 -22.8419 0.00165746 0.00117424 0.00086504 8.03394 5.68354 4.19274
896 3 9.6 -4.74789 -42.9158 -163.822 0.000398704 0.00222331 0.0058473 1.94704 10.7982 28.3461
901 3 9.6 -75.4025 -137.004 -76.5701 0.00268688 0.00496581 0.00272087 13.0202 24.0614 13.1827
903 3 9.6 -62.3724 -32.3466 -32.0287 0.00218595 0.00111939 0.000932631 10.5879 5.42032 4.50816
906 3 9.6 -76.3927 -168.69 -21.3501 0.00290642 0.00585006 0.000979942 14.0904 28.3587 4.7488
916 3 9.6 -118.389 -19.6292 -64.7399 0.00389618 0.000645682 0.00230491 18.8694 3.12737 11.1732
925 3 9.6 -76.3981 -50.0027 -56.3676 0.00282231 0.00180802 0.00210356 13.6784 8.76082 10.1963
930 3 9.6 -77.6098 -99.3203 -111.693 0.00313538 0.00367368 0.00403907 15.206 17.8016 19.5827
933 3 9.6 -123.164 -98.9353 -83.8664 0.00434831 0.00368225 0.00301143 21.0723 17.8441 14.5916
936 3 9.6 -53.9554 -51.2004 -161.152 0.00198872 0.00179707 0.00590302 9.63875 8.7036 28.6052
968 3 9.6 -61.2323 -132.659 -95.3146 0.00237068 0.00472875 0.0032697 11.4907 22.9128 15.8315
969 3 9.6 -45.219 -85.7465 -106.168 0.00154035 0.00331366 0.00414559 7.45982 16.06 20.0957
972 3 9.6 -82.1807 -62.1668 -49.6584 0.00297802 0.00234207 0.00201703 14.4327 11.3556 9.78087
989 3 9.6 -148.754 -49.7264 -83.711 0.00528397 0.00176304 0.00307482 25.6094 8.54497 14.9056
992 3 9.6 -111.254 -11.5873 -45.4162 0.00403614 0.000163531 0.00165296 19.5594 0.787367 8.00915
1007 3 9.6 -100.795 -52.7927 -136.557 0.00362666 0.00213729 0.00500732 17.5764 10.3595 24.2678
1008 3 9.6 -93.3897 -50.509 -37.7111 0.00359634 0.00185276 0.00130494 17.4494 8.98108 6.33089
1017 3 9.6 -18.1312 -16.9366 -175.895 0.000426396 0.000587976 0.00639262 2.05089 2.83984 30.9889
1018 3 9.6 -79.1368 -46.0414 -132.062 0.0029256 0.0019142 0.00459281 14.1766 9.28431 22.2516
1019 3 9.6 -158.904 -14.715 -48.414 0.0057662 0.000224289 0.00170548 27.9475 1.07946 8.26112
1023 3 9.6 -79.4244 -66.5427 -128.71 0.00317851 0.00219719 0.0045824 15.4244 10.6313 22.206
1028 3 9.6 -41.1897 -130.548 -62.0993 0.00144163 0.00483303 0.00230544 6.98559 23.4236 11.1724
1065 3 9.6 -96.8292 -101.633 -53.3623 0.00372748 0.0038371 0.00193931 18.0688 18.5993 9.39874
1077 3 9.6 -18.7155 -96.9643 -88.4346 0.000512084 0.00372425 0.00310351 2.47332 18.0526 15.031
1085 3 9.6 -26.7823 -28.7474 -104.982 0.000930635 0.00104913 0.00377485 4.50766 5.08421 18.2983
1087 3 9.6 -94.0333 -57.4065 -99.5497 0.00350922 0.00209009 0.00386393 17.0052 10.129 18.7332
1109 3 9.6 -28.4297 -158.482 -69.5765 0.00113691 0.005805 0.0022921 5.51122 28.1301 11.0941
1121 3 9.6 -86.9077 -10.0921 -126.708 0.00306341 0.000423242 0.00436492 14.8503 2.05055 21.1441
1132 3 9.6 -1.75898 -69.6652 -65.8721 -0.000214049 0.00249959 0.00266302 -1.05494 12.1131 12.9105
1139 3 9.6 -134.918 -124.583 -2.2444 0.00491269 0.00425828 0.000175236 23.8074 20.6356 0.850174
1162 3 9.6 -64.4383 -151.192 -21.7132 0.00248221 0.00530727 0.00117963 12.0414 25.6996 5.73404
1170 3 9.6 -77.2096 -8.62351 -138.364 0.00258318 0.000380534 0.00490545 12.5074 1.84795 23.7724
1210 3 9.6 -1.43469 -79.3313 -118.427 -6.12654e-05 0.00272022 0.00405734 -0.306612 13.1785 19.6523
1215 3 9.6 -29.353 -14.1298 -69.3191 0.000952214 0.000441295 0.00242503 4.60606 2.14143 11.7505
1218 3 9.6 -39.1305 -23.3804 -155.058 0.00161926 0.000971256 0.00551481 7.85982 4.70806 26.7217
1222 3 9.6 -117.085 -40.0239 -129.025 0.00446929 0.00149356 0.0045539 21.6648 7.23935 22.0634
1227 3 9.6 -16.1146 -2.17093 -27.7996 0.000622825 3.08973e-05 0.000687655 3.01647 0.145244 3.32325
1228 3 9.6 -77.5538 -77.8058 -95.0295 0.00296513 0.00281394 0.00357242 14.3743 13.6361 17.3129
1248 3 9.6 -44.9774 -151.915 -89.9334 0.00169431 0.00554479 0.0033864 8.21317 26.8831 16.4108
1249 3 9.6 -61.3356 -46.6281 -132.126 0.00208765 0.00178024 0.00473399 10.1136 8.63364 22.943
1259 3 9.6 -75.0858 -30.252 -165.869 0.00260014 0.00149984 0.00613255 12.6095 7.29051 29.7453
1296 3 9.6 -66.9273 -21.6697 -51.5862 0.00252456 0.000726179 0.00185585 12.238 3.51682 8.99804
1299 3 9.6 -20.4361 -71.481 -11.3677 0.000719752 0.00263855 0.000337066 3.48522 12.7878 1.62779
1303 3 9.6 -70.4113 -114.718 -83.8983 0.0027251 0.00431441 0.00281219 13.2094 20.9095 13.6194
1332 3 9.6 -25.1699 -27.1382 -175.823 0.000888545 0.00172188 0.00625925 4.29849 8.37794 30.3262
1336 3 9.6 -16.0402 -0.35144 -164.879 0.000603332 -0.000327272 0.00610376 2.92347 -1.61014 29.5916
1337 3 9.6 -159.279 -60.5189 -61.1966 0.0056088 0.00237674 0.00238169 27.1809 11.5235 11.5431
1353 3 9.6 -29.961 -38.5754 -32.5068 0.0010475 0.00137701 0.001249 5.07253 6.67443 6.0498
1354 3 9.6 -1.56488 -92.2118 -113.555 -0.000113132 0.0034771 0.00410548 -0.557692 16.8526 19.8899
1355 3 9.6 -61.7671 -104.518 -57.7321 0.00223717 0.00376182 0.00240183 10.8436 18.229 11.6469
1370 3 9.6 -5.49112 -23.0638 -117.139 0.000151334 0.00097737 0.00419979 0.73434 4.74529 20.3495
1375 3 9.6 -50.2863 -36.4179 -153.211 0.00187641 0.00157226 0.00548556 9.09711 7.62337 26.5812
1378 3 9.6 -41.6377 -17.909 -176.793 0.00204133 0.000630803 0.00614123 9.92381 3.05551 29.7621
1383 3 9.6 -48.7551 -59.351 -16.3001 0.00178085 0.00213071 0.000518973 8.62946 10.3238 2.51242
1391 3 9.6 -7.09644 -82.6999 -127.696 0.000418574 0.00314005 0.00475616 2.03544 15.2241 23.0552
1392 3 9.6 -39.0799 -80.1085 -95.9094 0.00132012 0.00302094 0.00380837 6.3955 14.6442 18.473
1412 3 9.6 -38.445 -104.706 -96.7875 0.00140962 0.00408737 0.00357585 6.83242 19.8168 17.3309
1422 3 9.6 -20.9071 -21.9974 -64.7272 0.000551946 0.0008158 0.00233038 2.66778 3.95637 11.2934
1424 3 9.6 -48.0826 -162.807 -21.1033 0.00162737 0.00585382 0.00086142 7.87778 28.3725 4.17691
1435 3 9.6 -4.24422 -162.414 -16.0678 0.000362368 0.00546012 0.000577188 1.77558 26.4446 2.79578
1444 3 9.6 -64.7775 -65.278 -37.3045 0.0021684 0.00251116 0.00122989 10.4992 12.1734 5.95288
1450 3 9.6 -92.7522 -29.924 -122.596 0.00313976 0.00107306 0.00425487 15.2049 5.1984 20.6157
1455 3 9.6 -75.9762 -26.8444 -114.865 0.00286267 0.000856015 0.00426013 13.8757 4.14683 20.6503
1458 3 9.6 -37.1321 -47.451 -21.1874 0.00116798 0.00174696 0.000812206 5.65238 8.46831 3.93323
1460 3 9.6 -148.997 -8.63378 -77.5205 0.00550852 0.000319447 0.0028727 26.7027 1.54988 13.9264
1469 3 9.6 -60.4908 -98.3262 -18.3804 0.00213027 0.0034883 0.000499887 10.3227 16.9051 2.42154
1470 3 9.6 -117.47 -65.6034 -88.1169 0.00430853 0.00257884 0.00340288 20.883 12.5052 16.5001
1475 3 9.6 -57.0318 -133.783 -33.0269 0.00204097 0.00485259 0.00127509 9.89134 23.5195 6.18086
1477 3 9.6 -83.1486 -24.5293 -55.8924 0.00301845 0.000771816 0.00214097 14.6277 3.73241 10.3809
1487 3 9.6 -41.83 -78.7154 -159.473 0.00143418 0.00288595 0.00561724 6.94871 13.9841 27.2176
1488 3 9.6 -114.05 -30.8194 -77.3505 0.00418735 0.00110831 0.00273395 20.2971 5.36637 13.2511
1490 3 9.6 -102.848 -85.8658 -30.4472 0.0039439 0.00326484 0.00118215 19.1252 15.8247 5.72303
1500 3 9.6 -21.4826 -118.142 -93.6601 0.0008388 0.00413058 0.00338351 4.06059 20.0117 16.4002
1518 3 9.6 -3.07714 -12.7183 -171.139 -0.000124783 0.000231898 0.00634012 -0.603408 1.11429 30.7413
1519 3 9.6 -24.052 -135.749 -74.8139 0.000730062 0.00470428 0.00263645 3.53147 22.7911 12.7765
1524 3 9.6 -147.458 -69.3868 -56.4446 0.00543264 0.00274205 0.00227262 26.3353 13.2887 11.0196
1526 3 9.6 -51.9944 -90.3709 -25.1551 0.0019273 0.00323475 0.00102172 9.34134 15.6751 4.94759
1532 3 9.6 -17.3908 -75.7562 -52.9213 0.000614503 0.00287782 0.00170731 2.97847 13.9516 8.26047
1536 3 9.6 -3.5105 -34.4917 -155.425 0.000320609 0.00167049 0.0054387 1.56872 8.11041 26.3468
1545 3 9.6 -70.8266 -58.4371 -158.309 0.00247134 0.00209506 0.00551952 11.9749 10.1534 26.744
1547 3 9.6 -72.5305 -39.6687 -60.9254 0.00259941 0.00129851 0.00217953 12.5926 6.28952 10.5653
1562 3 9.6 -79.05 -125.114 -16.4917 0.00292676 0.00454632 0.000556745 14.1858 22.0347 2.69547
1566 3 9.6 -19.0345 -129.476 -107.828 0.000617423 0.00437805 0.004032 2.993 21.2078 19.5457
1567 3 9.6 -92.5578 -94.5146 -97.2444 0.00347108 0.00330423 0.00363835 16.8278 16.0053 17.6343
1568 3 9.6 -30.9868 -66.3507 -24.6096 0.00132458 0.00228902 0.00104285 6.43132 11.0936 5.05966
1575 3 9.6 -29.834 -94.9602 -7.45796 0.00102775 0.00349427 7.30329e-05 4.97401 16.9376 0.344221
1580 3 9.6 -118.266 -102.326 -32.8295 0.00438559 0.00375164 0.00150301 21.2598 18.1813 7.29924
1582 3 9.6 -23.8366 -156.49 -80.685 0.000740772 0.00552259 0.00294428 3.584 26.7649 14.2705
1584 3 9.6 -64.6584 -148.261 -48.3754 0.00232502 0.00535738 0.00188965 11.2637 25.968 9.16183
1588 3 9.6 -39.8069 -29.667 -135.56 0.00167274 0.00130235 0.00473178 8.11121 6.31961 22.9222
1593 3 9.6 -69.998 -84.2559 -130.857 0.00250324 0.00339095 0.00495929 12.1317 16.4494 24.0375
1604 3 9.6 -83.0355 -149.08 -0.397193 0.00325283 0.0053603 4.88364e-05 15.7678 25.9795 0.228358
1610 3 9.6 -59.7235 -53.6042 -47.4132 0.00183519 0.00193715 0.00174365 8.8821 9.39004 8.44722
1611 3 9.6 -58.3894 -0.566184 -142.675 0.00245513 -9.26679e-05 0.00509382 11.9124 -0.448807 24.6931
1628 3 9.6 -43.1911 -67.1835 -39.8359 0.00166913 0.00237781 0.00143112 8.09093 11.5242 6.93291
1644 3 9.6 -52.8392 -61.855 -155.696 0.00182323 0.00248991 0.00549258 8.83507 12.0747 26.6096
1645 3 9.6 -40.8875 -97.3198 -5.16485 0.00174797 0.00370753 -3.21418e-05 8.48499 17.975 -0.164771
1655 3 9.6 -78.2053 -77.6076 -75.8943 0.00271669 0.00296397 0.0027447 13.1635 14.3655 13.3027
1670 3 9.6 -88.2854 -121.444 -49.0294 0.00327609 0.00452477 0.00200409 15.8772 21.9299 9.71826
1672 3 9.6 -63.4797 -87.9792 -94.872 0.00234797 0.00300561 0.0035761 11.3795 14.5602 17.3407
1674 3 9.6 -145.022 -3.06656 -14.3708 0.0050745 1.16795e-05 0.000455181 24.5884 0.053957 2.2006
1679 3 9.6 -124.691 -46.9281 -89.8178 0.00456814 0.0016799 0.00348465 22.1375 8.14382 16.8979
1680 3 9.6 -90.1836 -31.097 -44.062 0.0034984 0.00110927 0.00152929 16.9627 5.37501 7.4106
1685 3 9.6 -90.5566 -13.6615 -63.1919 0.0033698 0.00030959 0.00230319 16.3366 1.49497 11.161
1688 3 9.6 -11.0095 -77.3376 -34.7931 0.000608976 0.00302037 0.00124212 2.96815 14.6609 6.02511
1690 3 9.6 -58.0671 -115.335 -45.3497 0.00233333 0.00417822 0.00194282 11.3281 20.2466 9.42639
1697 3 9.6 -116.552 -106.236 -5.43987 0.004299 0.00397717 0.000475296 20.8364 19.28 2.31321
1704 3 9.6 -112.889 -34.2602 -51.3189 0.00404618 0.00098408 0.00183702 19.6085 4.76096 8.90034
1709 3 9.6 -67.6139 -80.5194 -50.8524 0.00229117 0.00308209 0.00198217 11.0985 14.9436 9.61104
1715 3 9.6 -138.667 -104.248 -17.331 0.00519189 0.00396669 0.000708573 25.1673 19.2264 3.43722
1722 3 9.6 -124.428 -12.5373 -16.2975 0.00441649 0.000546278 0.000575528 21.4014 2.6487 2.78868
1723 3 9.6 -27.1128 -121.096 -76.568 0.000933769 0.00421632 0.00297326 4.51774 20.4266 14.4093
1736 3 9.6 -85.9498 -6.80679 -104.267 0.00279912 0.00028474 0.00411017 13.5469 1.38054 19.9316
1745 3 9.6 -22.7681 -4.16988 -105.777 0.000933772 0.00027064 0.0037216 4.53504 1.31478 18.0289
1751 3 9.6 -38.3467 -82.9554 -51.5798 0.00171198 0.00317559 0.00196134 8.30355 15.4048 9.50529
1761 3 9.6 -89.1257 -116.011 -106.594 0.00304695 0.00414744 0.00412105 14.7541 20.1054 19.9825
1762 3 9.6 -1.9061 -174.453 -47.5864 7.29779e-05 0.00611015 0.00164522 0.351163 29.6104 7.96977
1775 3 9.6 -24.9632 -60.3982 -16.9688 0.000922667 0.00183816 0.000394004 4.47327 8.89379 1.89994
1776 3 9.6 -104.965 -64.1039 -14.1694 0.0038041 0.0022672 0.000651002 18.4412 10.9839 3.15657
1779 3 9.6 -72.4638 -78.1272 -25.9756 0.00232299 0.00289777 0.000800275 11.2409 14.0446 3.87143
1782 3 9.6 -153.685 -29.3093 -49.4875 0.00555878 0.00104076 0.0017158 26.94 5.04504 8.31371
1785 3 9.6 -64.7573 -48.5963 -2.6863 0.00229273 0.00159705 0.000126487 11.1126 7.73475 0.613389
1786 3 9.6 -111.798 -79.2956 -77.437 0.00414777 0.00313296 0.00295875 20.1062 15.1919 14.3448
1816 3 9.6 -57.0084 -134.633 -105.949 0.00189022 0.0048423 0.00402231 9.15735 23.465 19.5008
1826 3 9.6 -23.2873 -34.7774 -84.4531 0.000755047 0.00111318 0.00325936 3.65421 5.39082 15.8028
1844 3 9.6 -128.141 -36.5757 -23.337 0.00450825 0.000954556 0.00071453 21.8464 4.61555 3.46254
1849 3 9.6 -58.887 -165.593 -29.6922 0.00224433 0.00603198 0.00137589 10.8787 29.2397 6.68037
1876 3 9.6 -150.816 -29.254 -98.9809 0.0053987 0.00105481 0.00329415 26.1737 5.10934 15.949
1879 3 9.6 -72.0614 -24.121 -70.8385 0.00271914 0.000759456 0.00255455 13.1774 3.67707 12.3821
1883 3 9.6 -5.9356 -126.12 -29.1231 0.000238277 0.00437932 0.00119629 1.16434 21.2182 5.79937
1903 3 9.6 -113.487 -106.271 -23.2905 0.00396435 0.00403943 0.0007924 19.209 19.5843 3.83361
1916 3 9.6 -69.1699 -2.74232 -165.992 0.00259272 -7.25015e-05 0.00585819 12.5685 -0.354701 28.3842
1917 3 9.6 -14.7122 -161.53 -43.6128 0.000582446 0.00563495 0.00161103 2.82535 27.3048 7.80932
1926 3 9.6 -109 -62.3224 -58.6233 0.00397805 0.00228054 0.00216979 19.2785 11.0537 10.5154
1929 3 9.6 -99.6305 -68.1729 -81.367 0.00371672 0.00252162 0.00321443 18.0148 12.2222 15.5878
1939 3 9.6 -136.506 -97.9956 -50.9071 0.00498656 0.00356441 0.00189655 24.1646 17.2727 9.19139
1940 3 9.6 -14.7587 -129.765 -91.2095 0.000502164 0.0044629 0.00330269 2.43194 21.6168 16.0056
1944 3 9.6 -15.1505 -43.18 -146.651 0.000585164 0.00222119 0.00512925 2.83852 10.7852 24.8501
1954 3 9.6 -135.096 -116.87 -38.6647 0.00482849 0.00408017 0.00140101 23.396 19.7717 6.78855
1955 3 9.6 -61.2457 -15.4287 -148.351 0.00226247 0.000497241 0.00510922 10.9655 2.40263 24.7547
1965 3 9.6 -38.5299 -57.2743 -166.446 0.00119202 0.00221188 0.0059932 5.77315 10.7205 29.0406
1966 3 9.6 -46.7048 -49.7377 -80.6105 0.00187053 0.00174088 0.00290681 9.06395 8.43255 14.0936
1969 3 9.6 -101.553 -22.189 -149.817 0.00360735 0.000827283 0.00534459 17.4792 4.0114 25.901
1972 3 9.6 -71.0359 -142.498 -5.45566 0.00267804 0.00505104 0.000120372 12.9866 24.4714 0.580903
1982 3 9.6 -109.655 -9.17085 -74.7559 0.00395105 0.000222702 0.00252002 19.1486 1.07922 12.2051
1985 3 9.6 -65.9969 -162.449 -47.1251 0.00229668 0.0058903 0.00170833 11.1278 28.5486 8.27934
1986 3 9.6 -90.1724 -89.418 -10.2925 0.00334812 0.00319877 0.000278735 16.2289 15.5011 1.35052
1987 3 9.6 -26.4304 -37.6062 -163.081 0.00099123 0.00191933 0.00603111 4.80602 9.31623 29.2337
1989 3 9.6 -158.418 -23.5533 -85.3058 0.00584147 0.000761607 0.00303667 28.3141 3.69393 14.7187
1990 3 9.6 -98.2072 -131.95 -10.8706 0.00344094 0.00512066 0.000544847 16.6761 24.8225 2.64479
1998 3 9.6 -128.145 -84.1811 -68.9393 0.00472202 0.00317138 0.00290415 22.8903 15.377 14.09
2000 3 9.6 -46.0494 -124.997 -72.3368 0.00166036 0.00411066 0.00282514 8.05079 19.9081 13.6888
2005 3 9.6 -147.312 -74.2841 -44.8863 0.00531582 0.00291031 0.00154762 25.7655 14.1169 7.49972
2006 3 9.6 -10.1957 -103.57 -66.9257 0.00033744 0.00402126 0.00256535 1.63557 19.4953 12.4355
2011 3 9.6 -36.4857 -115.757 -60.7879 0.00148354 0.00427994 0.00258379 7.20087 20.7601 12.5408
2017 3 9.6 -98.4209 -150.349 -33.7152 0.00354154 0.00527131 0.00112102 17.1615 25.5439 5.43306
2021 3 9.6 -52.1105 -35.696 -102.402 0.00172809 0.00136052 0.00379532 8.36964 6.60285 18.3961
2031 3 9.6 -54.2243 -95.3128 -146.407 0.00159525 0.00348004 0.00523587 7.72687 16.8707 25.37
2036 3 9.6 -47.9153 -43.7697 -90.9982 0.00159047 0.00144373 0.00339843 7.71246 6.99427 16.4734
2061 3 9.6 -42.1931 -88.9877 -15.7641 0.00177821 0.00325056 0.000534588 8.63102 15.7544 2.59245
2082 3 9.6 -169.45 -54.9386 -53.4066 0.00592647 0.00214245 0.00194915 28.7235 10.3884 9.44338
2086 3 9.6 -12.9075 -14.5658 -55.5833 0.000362087 0.000582359 0.00227574 1.75697 2.82828 11.0464
2104 3 9.6 -173.724 -22.3011 -22.3712 0.00604877 0.00100644 0.00140676 29.2986 4.88749 6.83863
2107 3 9.6 -171.094 -55.6183 -8.75317 0.0062505 0.00218673 0.000133843 30.2957 10.5956 0.649705
2109 3 9.6 -20.7233 -53.0161 -123.274 0.000599703 0.00203962 0.00475871 2.8998 9.88761 23.0693
2120 3 9.6 -5.79533 -11.3167 -124.043 0.000179155 0.000466287 0.00459878 0.866662 2.26463 22.2825
2155 3 9.6 -46.3312 -110.779 -119.814 0.00133506 0.00422507 0.00440661 6.46285 20.4797 21.3531
2160 3 9.6 -70.5983 -29.7366 -154.013 0.00240086 0.00146157 0.00534614 11.6215 7.10225 25.8839
2165 3 9.6 -37.45 -22.338 -71.0849 0.00151552 0.00096255 0.00267274 7.35141 4.67404 12.9559
2171 3 9.6 -67.9309 -17.4878 -126.6 0.00238397 0.000517691 0.00447769 11.5525 2.50498 21.6995
2181 3 9.6 -32.5957 -31.3647 -13.7305 0.00109377 0.00113737 0.000194581 5.29435 5.51312 0.930583
2190 3 9.6 -169.499 -29.2217 -53.8564 0.00609638 0.00081404 0.00181461 29.5447 3.94444 8.78928
2194 3 9.6 -103.983 -48.0299 -21.9644 0.00381689 0.00169595 0.000705016 18.5012 8.21004 3.41089
2200 3 9.6 -68.9917 -129.173 -41.6788 0.00256161 0.00458385 0.00147135 12.4151 22.2148 7.12304
2210 3 9.6 -130.738 -29.2592 -107.19 0.00458096 0.00129652 0.00411506 22.2077 6.29221 19.9533
2211 3 9.6 -147.674 -20.7159 -3.50513 0.00503025 0.000682651 0.000262567 24.3661 3.3027 1.2769
2223 3 9.6 -106.172 -131.933 -31.2656 0.00400206 0.00492263 0.00110097 19.4002 23.855 5.3355
2233 3 9.6 -81.4416 -60.3709 -63.7297 0.00293847 0.0024183 0.00265312 14.2461 11.7274 12.8673
2235 3 9.6 -108.155 -31.4613 -126.278 0.00400279 0.00120935 0.00432378 19.408 5.86382 20.9467
2236 3 9.6 -93.4623 -39.7187 -59.7 0.0034601 0.00132152 0.00213525 16.7746 6.40158 10.3489
2240 3 9.6 -48.1138 -7.76502 -23.1221 0.00158142 0.000212662 0.000584203 7.65947 1.02138 2.82847
2243 3 9.6 -34.1994 -97.2005 -53.195 0.00133504 0.00329057 0.00196045 6.47277 15.9256 9.49411
2246 3 9.6 -9.00648 -40.5361 -67.6271 8.91787e-05 0.00129629 0.00252325 0.420689 6.27765 12.2347
2261 3 9.6 -47.442 -44.1736 -15.6928 0.00174663 0.00163563 0.000344395 8.4656 7.93174 1.65976
2263 3 9.6 -53.2752 -25.6155 -109.659 0.00195149 0.000769293 0.00439646 9.45541 3.72372 21.321
2264 3 9.6 -144.644 -87.2225 -7.5471 0.00519764 0.00342258 0.000266126 25.1886 16.5908 1.28877
2288 3 9.6 -107.713 -123.925 -54.2611 0.00404143 0.00436735 0.00194987 19.59 21.1591 9.45112
2298 3 9.6 -35.9074 -166.224 -50.6453 0.00143797 0.00596514 0.00199948 6.96981 28.9048 9.69208
2306 3 9.6 -21.7149 -103.746 -98.5488 0.000707151 0.00405634 0.00371659 3.42366 19.6806 18.0145
2340 3 9.6 -42.7027 -110.666 -42.2913 0.00158374 0.00364198 0.0017312 7.67406 17.6284 8.39808
2344 3 9.6 -61.6442 -86.2958 -146.301 0.00210426 0.00306669 0.0052584 10.1986 14.8563 25.4822
2355 3 9.6 -149.242 -61.1144 -77.5987 0.0053412 0.00252161 0.00285822 25.8858 12.226 13.8499
2358 3 9.6 -80.2403 -107.305 -31.8691 0.0029614 0.00409429 0.000946498 14.3519 19.8523 4.57655
2363 3 9.6 -53.6487 -25.3949 -84.3911 0.00169534 0.00097945 0.00299428 8.20651 4.74832 14.5093
2377 3 9.6 -60.0265 -1.00756 -70.2851 0.00219339 -0.000158508 0.00252179 10.6256 -0.776812 12.217
2391 3 9.6 -23.6323 -113.251 -110.27 0.000920517 0.00410524 0.00424943 4.45681 19.897 20.5948
2399 3 9.6 -14.993 -168.642 -77.2524 0.000489237 0.00595447 0.00248137 2.36864 28.864 12.0166
2417 3 9.6 -84.4601 -32.5412 -84.5768 0.00302929 0.0011736 0.00333416 14.6763 5.68856 16.1679
2430 3 9.6 -4.60565 -73.0909 -134.086 9.87138e-05 0.00240913 0.00502453 0.480869 11.6656 24.3541
2450 3 9.6 -1.88594 -41.7922 -88.2934 0.000160738 0.00148997 0.00313208 0.775708 7.21893 15.1797
2452 3 9.6 -9.50497 -183.574 -28.0811 0.000537963 0.00644072 0.00104575 2.61025 31.216 5.07018
2471 3 9.6 -115.592 -29.103 -109.141 0.00396892 0.0013748 0.00414617 19.2318 6.67551 20.1038
2481 3 9.6 -134.146 -46.423 -17.7301 0.00482906 0.00143831 0.000449634 23.4056 6.961 2.17201
2486 3 9.6 -113.138 -91.9295 -18.7937 0.00398793 0.00319714 0.000735896 19.3202 15.4908 3.56626
2491 3 9.6 -134.76 -12.0337 -7.49207 0.00475554 0.00043484 0.000180669 23.0447 2.11041 0.87496
2504 3 9.6 -102.951 -8.17133 -0.218826 0.00346191 6.36843e-05 0.000244747 16.7677 0.29533 1.19399
2508 3 9.6 -63.1251 -63.9822 -131.299 0.00193348 0.00204601 0.00483805 9.35558 9.89159 23.4518
2514 3 9.6 -122.913 -57.5736 -50.3849 0.00446649 0.00192269 0.00187734 21.6413 9.31492 9.09294
2521 3 9.6 -52.9319 -143.686 -89.5878 0.00228109 0.00512643 0.00325634 11.0664 24.8358 15.7808
2525 3 9.6 -21.2178 -122.363 -31.4131 0.000539962 0.00448572 0.00103365 2.60067 21.7435 5.00272
2526 3 9.6 -109.034 -93.4877 -5.12682 0.00377169 0.00326565 0.00025832 18.2748 15.8168 1.25391
2532 3 9.6 -99.4673 -104.704 -89.9702 0.00391758 0.00368243 0.0029459 18.9878 17.8409 14.2679
2541 3 9.6 -31.9344 -153.915 -56.2387 0.00131808 0.00555615 0.00213712 6.38632 26.929 10.3613
2544 3 9.6 -170.071 -34.3097 -66.4152 0.0060433 0.00113618 0.00239066 29.2934 5.50352 11.5847
2545 3 9.6 -156.989 -77.4189 -31.1308 0.00552707 0.00317177 0.0013006 26.7842 15.3805 6.31096