Lammps Description

6100 atoms

5 atom types

-1e3 1e3 xlo xhi
-1e3 1e3 ylo yhi
-1e3 1e3 zlo zhi

Atoms

1 1 67.173549512832281 96.865775715048471 91.375817470056404 0.000073559764348 7.680000e+00 3600
2 1 -40.504027566528862 58.432834672638968 -123.577017203718910 0.000073559764348 7.680000e+00 3600
3 1 -174.967869567215615 -23.021541525143466 -44.513564514882702 0.000073559764348 7.680000e+00 3600
4 1 -3.846819428780732 -20.450190918715855 54.988422601593840 0.000073559764348 7.680000e+00 3600
5 1 78.685017746405791 95.718206393223298 -84.175889135189095 0.000073559764348 7.680000e+00 3600
6 1 67.537170686004117 58.290063068838570 -126.799718438078600 0.000073559764348 7.680000e+00 3600
7 1 -59.987400359369964 32.045948078013588 -103.799011292480216 0.000073559764348 7.680000e+00 3600
8 1 94.433018857666355 -92.041939934659567 2.238822604861150 0.000073559764348 7.680000e+00 3600
9 1 -91.135016561426596 128.050844182875693 -92.347463654675991 0.000073559764348 7.680000e+00 3600
10 1 -56.380195218824440 -114.027785881325329 -93.549479978325962 0.000073559764348 7.680000e+00 3600
11 1 43.612756567334188 -10.038779624551426 -55.750405984714767 0.000073559764348 7.680000e+00 3600
12 1 124.334427851854414 32.044572615117360 18.687489129709238 0.000073559764348 7.680000e+00 3600
13 1 95.358318798140630 -44.931713764178561 25.489223678030253 0.000073559764348 7.680000e+00 3600
14 1 25.865810197951376 -11.503832528462667 -183.440524207783540 0.000073559764348 7.680000e+00 3600
15 1 -61.213755736509384 -126.961108825788429 110.600162459488217 0.000073559764348 7.680000e+00 3600
16 1 -70.950539811668889 10.723531093858419 -125.658333087840461 0.000073559764348 7.680000e+00 3600
17 1 38.327597028177209 -89.081860625434629 57.907130573493639 0.000073559764348 7.680000e+00 3600
18 1 71.111974615935409 93.262141521604946 -18.587817178224878 0.000073559764348 7.680000e+00 3600
19 1 -130.645828310054895 122.450912843258195 14.410133671988115 0.000073559764348 7.680000e+00 3600
20 1 -156.180351478947387 -37.664415756133941 -90.247256598421302 0.000073559764348 7.680000e+00 3600
21 1 45.871649730191571 -56.016163299658615 4.979538709046779 0.000073559764348 7.680000e+00 3600
22 1 167.163165719779926 -3.433523401864775 -4.039151822947867 0.000073559764348 7.680000e+00 3600
23 1 -60.989475002887303 150.351154374301700 -49.140628374829419 0.000073559764348 7.680000e+00 3600
24 1 -146.120616218492472 105.326376349542528 -41.439154488771173 0.000073559764348 7.680000e+00 3600
25 1 -97.079464915956081 -36.112438266857701 -151.663403631206307 0.000073559764348 7.680000e+00 3600
26 1 87.087597057559691 55.526965458782861 -18.444210589631737 0.000073559764348 7.680000e+00 3600
27 1 17.667224760864428 -76.548200381325231 91.962235434373383 0.000073559764348 7.680000e+00 3600
28 1 -116.899194873306882 70.195305623727620 -118.945145778729056 0.000073559764348 7.680000e+00 3600
29 1 -49.427078161463761 47.210883698963556 105.317118532019606 0.000073559764348 7.680000e+00 3600
30 1 -4.964065046158451 -24.106093058252050 -20.000119424792210 0.000073559764348 7.680000e+00 3600
31 1 -72.779153826973896 3.197784923657413 4.048247810127938 0.000073559764348 7.680000e+00 3600
32 1 119.373161975946772 110.805693461471748 54.238692281210731 0.000073559764348 7.680000e+00 3600
33 1 -45.621907177423381 117.100440360060915 12.336752197756882 0.000073559764348 7.680000e+00 3600
34 1 18.850122605990659 46.029480099415579 32.713775722094226 0.000073559764348 7.680000e+00 3600
35 1 -109.838423141920202 -74.697053774629012 -10.927799232194781 0.000073559764348 7.680000e+00 3600
36 1 -24.166189525077346 -70.992916366376662 159.117625036765759 0.000073559764348 7.680000e+00 3600
37 1 -90.925890550098998 -34.305573190548863 35.664534663387819 0.000073559764348 7.680000e+00 3600
38 1 -89.367315270035334 38.651239943016350 79.380655115909065 0.000073559764348 7.680000e+00 3600
39 1 -68.108060320131543 -28.500201458054303 2.953357856150888 0.000073559764348 7.680000e+00 3600
40 1 -4.281058546183182 29.511861160461248 -98.736001186194372 0.000073559764348 7.680000e+00 3600
41 1 -15.465733531638495 174.041312395247132 17.590866596432338 0.000073559764348 7.680000e+00 3600
42 1 7.943422088045331 -100.874155217556776 -4.172530854807237 0.000073559764348 7.680000e+00 3600
43 1 46.625167176166364 67.324025502585400 -39.268233712659118 0.000073559764348 7.680000e+00 3600
44 1 -150.814878248609233 -89.495308482660818 -61.877393238665690 0.000073559764348 7.680000e+00 3600
45 1 67.546669541828280 -136.593250737773531 83.143332051300959 0.000073559764348 7.680000e+00 3600
46 1 -147.789625273660164 57.786208213868377 -2.189593624926809 0.000073559764348 7.680000e+00 3600
47 1 146.919346791292924 -62.326051060627499 74.694108271167266 0.000073559764348 7.680000e+00 3600
48 1 0.008431907144442 -7.545807353399388 152.105663373250479 0.000073559764348 7.680000e+00 3600
49 1 41.290885128302406 44.222240741088946 135.088228919182484 0.000073559764348 7.680000e+00 3600
50 1 114.811263629814107 28.834039570690781 -119.166390166011226 0.000073559764348 7.680000e+00 3600
51 1 79.936387644603627 0.177249229688505 -10.865777948098149 0.000073559764348 7.680000e+00 3600
52 1 -131.590123132606578 59.984010237245208 6.988486917494512 0.000073559764348 7.680000e+00 3600
53 1 -17.364082085072774 -25.409118154196474 122.261803281148445 0.000073559764348 7.680000e+00 3600
54 1 -40.988550581526688 124.541551889235123 114.012618256058133 0.000073559764348 7.680000e+00 3600
55 1 -165.186927170773430 -37.861679416715837 10.100670641900784 0.000073559764348 7.680000e+00 3600
56 1 -31.269030789676268 58.952228291543243 48.095881231201808 0.000073559764348 7.680000e+00 3600
57 1 -47.951902078550596 -113.455343745491803 -3.875667094568450 0.000073559764348 7.680000e+00 3600
58 1 -29.000481969860584 17.991191243480330 166.392642556267930 0.000073559764348 7.680000e+00 3600
59 1 75.578401166961811 62.514680403557556 14.704793463322005 0.000073559764348 7.680000e+00 3600
60 1 63.580696839032271 -116.343627369558192 -49.264739722282272 0.000073559764348 7.680000e+00 3600
61 1 133.615173917156966 54.406464094224383 -46.500280348103757 0.000073559764348 7.680000e+00 3600
62 1 -116.159311120458511 -26.964483469028821 -6.756600146044273 0.000073559764348 7.680000e+00 3600
63 1 -142.584510579667040 33.639355725609946 -102.906143259803088 0.000073559764348 7.680000e+00 3600
64 1 -43.363282215928564 31.188547629746157 -93.278033267459548 0.000073559764348 7.680000e+00 3600
65 1 -78.758117983381979 44.005950181139930 -88.213840411133930 0.000073559764348 7.680000e+00 3600
66 1 -58.675283004728833 31.595549996779425 -147.411109448262494 0.000073559764348 7.680000e+00 3600
67 1 -28.089587402174100 -70.385353899653339 -127.223272371449639 0.000073559764348 7.680000e+00 3600
68 1 37.027883779680522 -10.927458040865229 73.643100091557528 0.000073559764348 7.680000e+00 3600
69 1 -162.054436764683032 -67.799343283216245 11.599639080709313 0.000073559764348 7.680000e+00 3600
70 1 58.044912347093934 -34.719227152203693 120.257676945663761 0.000073559764348 7.680000e+00 3600
71 1 -65.715025167296048 -148.215309168882897 41.701292412767913 0.000073559764348 7.680000e+00 3600
72 1 -87.766387587783726 -130.165258467648243 -82.304184450980486 0.000073559764348 7.680000e+00 3600
73 1 -22.517640052540159 10.200983175492498 -16.001085414870133 0.000073559764348 7.680000e+00 3600
74 1 66.191568795293932 -79.275291141857750 64.570197817795034 0.000073559764348 7.680000e+00 3600
75 1 -103.713288344085385 63.076119563052103 129.431972108228649 0.000073559764348 7.680000e+00 3600
76 1 -58.455271006366253 105.426941874232284 65.894575742613128 0.000073559764348 7.680000e+00 3600
77 1 -28.431695620813596 -14.688696377519697 101.533399629773399 0.000073559764348 7.680000e+00 3600
78 1 -66.719940234208039 107.012798517894694 -10.764763400572827 0.000073559764348 7.680000e+00 3600
79 1 -9.964687505067932 -130.516851347360046 -59.709708944777240 0.000073559764348 7.680000e+00 3600
80 1 40.359797567257822 -115.850546364420680 89.607313978740009 0.000073559764348 7.680000e+00 3600
81 1 99.782152684902172 -117.009326642349336 -79.863986491456188 0.000073559764348 7.680000e+00 3600
82 1 -153.670720312627338 28.641565277868100 68.912911464385019 0.000073559764348 7.680000e+00 3600
83 1 17.510964154649034 -27.913128348539743 54.285539618492720 0.000073559764348 7.680000e+00 3600
84 1 55.478734428391135 67.279382191349740 51.032351912865579 0.000073559764348 7.680000e+00 3600
85 1 -99.131748370249682 -143.041278106154948 40.327749615369029 0.000073559764348 7.680000e+00 3600
86 1 -18.739614399587492 -15.512086014649539 60.863257813685401 0.000073559764348 7.680000e+00 3600
87 1 101.580673515025595 -56.292158631303110 60.887628880794225 0.000073559764348 7.680000e+00 3600
88 1 -31.509890219252565 128.506308042575284 125.119227091049353 0.000073559764348 7.680000e+00 3600
89 1 -91.536122710781456 42.641641640822606 30.911480901198257 0.000073559764348 7.680000e+00 3600
90 1 15.310954812578000 139.033936965020729 -88.402461866380207 0.000073559764348 7.680000e+00 3600
91 1 54.702367242373285 -7.718280585750055 52.359116413622722 0.000073559764348 7.680000e+00 3600
92 1 16.805534797454797 55.363674947736015 16.493531800095283 0.000073559764348 7.680000e+00 3600
93 1 -164.014273929256802 -35.861441907569230 -19.402868732031063 0.000073559764348 7.680000e+00 3600
94 1 -50.429943097398557 99.032236008656881 48.066950205519198 0.000073559764348 7.680000e+00 3600
95 1 -152.653520032311718 9.547668346761487 11.404185473547061 0.000073559764348 7.680000e+00 3600
96 1 135.726197909911974 -5.692530657451615 -40.042007409670788 0.000073559764348 7.680000e+00 3600
97 1 64.428501254260226 90.671319936366729 7.536264548373033 0.000073559764348 7.680000e+00 3600
98 1 -57.233734596063577 -131.540584828279975 32.355748623915296 0.000073559764348 7.680000e+00 3600
99 1 -96.668282832148222 -21.646782819346999 70.578894410390475 0.000073559764348 7.680000e+00 3600
100 1 -52.905880693169991 88.823050482549050 -39.571804597261689 0.000073559764348 7.680000e+00 3600
101 1 68.932688877107665 76.686593498810467 -21.683200340741347 0.000073559764348 7.680000e+00 3600
102 1 -86.338645010422283 -113.855451153706468 120.911602222419305 0.000073559764348 7.680000e+00 3600
103 1 -26.337447047440346 145.734908256323564 -40.896400308289628 0.000073559764348 7.680000e+00 3600
104 1 101.140531868104361 -38.788564832401867 115.948017680048167 0.000073559764348 7.680000e+00 3600
105 1 95.864935766981517 -46.078100562066666 -106.727842234252094 0.000073559764348 7.680000e+00 3600
106 1 64.365824828800598 -23.058890140193238 125.338626238254946 0.000073559764348 7.680000e+00 3600
107 1 33.082594128669832 -129.753490409855999 -112.799742979884257 0.000073559764348 7.680000e+00 3600
108 1 -34.968911736209343 93.470396967962074 122.363284311312412 0.000073559764348 7.680000e+00 3600
109 1 108.976020774251680 -68.203541697041942 12.802228796957886 0.000073559764348 7.680000e+00 3600
110 1 67.142412199919377 -1.812607862386831 -116.615298323827204 0.000073559764348 7.680000e+00 3600
111 1 73.912901715161027 31.115104372611302 118.534880383473478 0.000073559764348 7.680000e+00 3600
112 1 10.402925544804326 -7.695670717554656 113.254655001754571 0.000073559764348 7.680000e+00 3600
113 1 -102.284052894713312 -0.716217381959479 150.651305878651982 0.000073559764348 7.680000e+00 3600
114 1 28.059723919006966 129.727383082122770 89.687535073141177 0.000073559764348 7.680000e+00 3600
115 1 -156.538526881708037 47.339125157454021 60.487357625306615 0.000073559764348 7.680000e+00 3600
116 1 -109.213500792444194 19.652513366732112 48.813721086161060 0.000073559764348 7.680000e+00 3600
117 1 -81.980389188492367 14.505685049886313 73.347596915786653 0.000073559764348 7.680000e+00 3600
118 1 -0.332226260375035 13.455013889252704 -20.601662627887329 0.000073559764348 7.680000e+00 3600
119 1 24.421096206722570 52.733013504290362 -31.182784547243759 0.000073559764348 7.680000e+00 3600
120 1 45.459559781952457 27.702141428637415 -168.341354216058050 0.000073559764348 7.680000e+00 3600
121 1 5.027599022483316 -121.165794715972737 -38.112834979535727 0.000073559764348 7.680000e+00 3600
122 1 -74.674603991733989 -76.843965612125146 -62.787105048279557 0.000073559764348 7.680000e+00 3600
123 1 -12.376674140713975 55.697006010926287 -178.432207604333598 0.000073559764348 7.680000e+00 3600
124 1 128.610584981228840 22.186041614600377 133.080425582413255 0.000073559764348 7.680000e+00 3600
125 1 -57.171150688967252 -20.284658785391652 -167.528968134928419 0.000073559764348 7.680000e+00 3600
126 1 -121.351801684437774 61.187713295273653 -63.579080880250118 0.000073559764348 7.680000e+00 3600
127 1 -79.732006563455272 -32.124762867517425 -13.214109580162388 0.000073559764348 7.680000e+00 3600
128 1 8.225233499685483 -61.692435580991869 -121.892430792158805 0.000073559764348 7.680000e+00 3600
129 1 92.282916321688106 88.795758391351796 23.249212038880096 0.000073559764348 7.680000e+00 3600
130 1 -118.688477618553080 36.534678700031790 -75.189139554463765 0.000073559764348 7.680000e+00 3600
131 1 -75.825422003265459 -170.493576336700528 2.040044088894348 0.000073559764348 7.680000e+00 3600
132 1 -60.847296162508727 -77.430549879881355 92.571308899441959 0.000073559764348 7.680000e+00 3600
133 1 38.886092332422010 9.810019074984917 86.331080229107357 0.000073559764348 7.680000e+00 3600
134 1 72.358775365876454 21.298070700575291 -38.890310462987919 0.000073559764348 7.680000e+00 3600
135 1 40.538951993186664 90.669856482929660 -148.521969716772048 0.000073559764348 7.680000e+00 3600
136 1 -139.849703125485064 18.618524341808740 -5.551191395680254 0.000073559764348 7.680000e+00 3600
137 1 -143.756626140151980 52.885636142572288 -64.336290362560817 0.000073559764348 7.680000e+00 3600
138 1 57.806756167961098 93.630403516898042 31.263468314847124 0.000073559764348 7.680000e+00 3600
139 1 90.210700192683049 -99.659282953184785 88.303456995308025 0.000073559764348 7.680000e+00 3600
140 1 -50.196765006431001 -49.158659362042421 69.538750110511842 0.000073559764348 7.680000e+00 3600
141 1 36.809139752404491 108.750867790531771 -49.739645473026400 0.000073559764348 7.680000e+00 3600
142 1 -110.615548021358620 -41.990570516307542 19.459785529591461 0.000073559764348 7.680000e+00 3600
143 1 -101.866765718286487 53.345159209748289 -5.832699638530038 0.000073559764348 7.680000e+00 3600
144 1 -77.395492434778944 -98.702387217841959 11.602636804654548 0.000073559764348 7.680000e+00 3600
145 1 38.910692077899384 174.542714084051255 -25.373981990280420 0.000073559764348 7.680000e+00 3600
146 1 -117.460759251528060 -87.876374148577597 111.932740633275230 0.000073559764348 7.680000e+00 3600
147 1 -4.658839528933909 101.081856459745637 -39.083503492451484 0.000073559764348 7.680000e+00 3600
148 1 -26.471598649262528 -18.137712730512238 41.287322611648946 0.000073559764348 7.680000e+00 3600
149 1 -124.680216627389356 -114.157945461735650 -68.596082124128671 0.000073559764348 7.680000e+00 3600
150 1 -68.990992425520048 -106.147417019464513 -93.565269219660451 0.000073559764348 7.680000e+00 3600
151 1 147.670964154653603 76.376834471944051 20.947840160395213 0.000073559764348 7.680000e+00 3600
152 1 -70.118477767433177 -125.449811551855490 46.037813422726444 0.000073559764348 7.680000e+00 3600
153 1 -38.785632770849688 -160.104392788985336 69.188326599938407 0.000073559764348 7.680000e+00 3600
154 2 45.351811323692836 -129.897260576649217 -44.593710680624994 0.000104736461347 8.640000e+00 3600
155 2 -56.082172104586078 69.729383275878149 -77.364561845054041 0.000104736461347 8.640000e+00 3600
156 2 11.511328371921591 124.933781581021762 36.639474959357230 0.000104736461347 8.640000e+00 3600
157 2 -61.894496859762434 -75.456716093726811 -17.817016796189883 0.000104736461347 8.640000e+00 3600
158 2 -29.071874794652775 -52.763777548324342 21.917947049008383 0.000104736461347 8.640000e+00 3600
159 2 91.155168355390970 -28.437053485999105 -26.550022784535031 0.000104736461347 8.640000e+00 3600
160 2 99.180050175179247 97.462308546137152 90.442110959489156 0.000104736461347 8.640000e+00 3600
161 2 91.584729851408653 -148.105863223507896 68.235365199833083 0.000104736461347 8.640000e+00 3600
162 2 -13.807677313796685 -108.176923553781222 -150.887616226603427 0.000104736461347 8.640000e+00 3600
163 2 62.382526308052796 148.222291545132038 6.223026630731576 0.000104736461347 8.640000e+00 3600
164 2 15.365353602352810 67.548904524028330 -174.172266658854710 0.000104736461347 8.640000e+00 3600
165 2 9.412656489300449 -65.456475929717669 17.456967285786295 0.000104736461347 8.640000e+00 3600
166 2 -38.003373157858171 -31.910222713902598 -119.987463496857686 0.000104736461347 8.640000e+00 3600
167 2 -22.536259754894587 -91.095373325598132 94.688331327443052 0.000104736461347 8.640000e+00 3600
168 2 64.342453972770684 80.882736970527446 53.390336670079648 0.000104736461347 8.640000e+00 3600
169 2 -30.423860715393452 -41.054590998483974 118.814079246950016 0.000104736461347 8.640000e+00 3600
170 2 -68.615591880267260 118.212631563778785 108.641716757133267 0.000104736461347 8.640000e+00 3600
171 2 132.390384524100256 2.118394726781949 50.985252615305320 0.000104736461347 8.640000e+00 3600
172 2 39.458348796690430 -42.376244321340707 -134.475831522078153 0.000104736461347 8.640000e+00 3600
173 2 84.852507724071060 -48.721240670372616 128.367603258632300 0.000104736461347 8.640000e+00 3600
174 2 88.029910910752989 26.693461555769836 -121.446689117767590 0.000104736461347 8.640000e+00 3600
175 2 83.874684674013352 -57.337096758948981 60.364186451876755 0.000104736461347 8.640000e+00 3600
176 2 117.676341315850024 -43.856670445611385 44.076736471372087 0.000104736461347 8.640000e+00 3600
177 2 28.373028799212403 11.294250868465896 -84.534924907480075 0.000104736461347 8.640000e+00 3600
178 2 -94.472097767645266 -18.175470013892284 -102.332951663422577 0.000104736461347 8.640000e+00 3600
179 2 47.330797166223071 -136.098716492923359 -106.057863279919403 0.000104736461347 8.640000e+00 3600
180 2 43.762639851540264 165.236607529264745 -54.699508722583644 0.000104736461347 8.640000e+00 3600
181 2 -61.372873498836661 61.027535115909942 -96.149667862315368 0.000104736461347 8.640000e+00 3600
182 2 -76.853956471012083 67.715949616205108 10.465598910304182 0.000104736461347 8.640000e+00 3600
183 2 -33.225570588506088 38.574243699640853 94.152274598366049 0.000104736461347 8.640000e+00 3600
184 2 31.394046804697098 19.465040714647113 31.408119468195434 0.000104736461347 8.640000e+00 3600
185 2 4.442248527997494 -156.873045721087607 82.520449529135959 0.000104736461347 8.640000e+00 3600
186 2 -57.708746462075332 145.273733404595816 -17.026906274108804 0.000104736461347 8.640000e+00 3600
187 2 -32.536387662784762 -106.083992805856226 -140.689223285189740 0.000104736461347 8.640000e+00 3600
188 2 -71.815111137108019 84.976216612754541 106.311045609247330 0.000104736461347 8.640000e+00 3600
189 2 -45.780974429556167 76.796408035059116 86.257266726936848 0.000104736461347 8.640000e+00 3600
190 2 -103.624202302443010 -86.795535116305601 65.029834443684038 0.000104736461347 8.640000e+00 3600
191 2 -8.459046412122037 46.496004540793358 -99.051187667537263 0.000104736461347 8.640000e+00 3600
192 2 21.533083339755887 102.411083607452596 -70.678059216761653 0.000104736461347 8.640000e+00 3600
193 2 -120.647145982134290 -60.524851586111488 -108.935180754222017 0.000104736461347 8.640000e+00 3600
194 2 3.815594026109318 152.722803808941364 48.453134937791887 0.000104736461347 8.640000e+00 3600
195 2 156.905577111689468 80.266942750580185 44.474418612683429 0.000104736461347 8.640000e+00 3600
196 2 86.660272347448014 55.050216995070443 125.207609115636075 0.000104736461347 8.640000e+00 3600
197 2 18.531492513298542 -63.731435851903598 44.900671238938621 0.000104736461347 8.640000e+00 3600
198 2 -64.734387025556543 126.955656049743041 89.849868139709088 0.000104736461347 8.640000e+00 3600
199 2 61.129750326053603 -82.117677670600585 -101.329402105926221 0.000104736461347 8.640000e+00 3600
200 2 79.347871981701019 46.817902243499354 34.053204799198397 0.000104736461347 8.640000e+00 3600
201 2 -18.287537990722310 -97.374973705251051 80.819785339001214 0.000104736461347 8.640000e+00 3600
202 2 133.863026815946426 -82.115371605578588 86.835208008066459 0.000104736461347 8.640000e+00 3600
203 2 33.151494576837315 -50.301927445389211 115.288609441291868 0.000104736461347 8.640000e+00 3600
204 2 -55.193314979136645 -19.000491305265296 174.207333183845066 0.000104736461347 8.640000e+00 3600
205 2 62.808370061694788 32.486366440473674 65.812025524922248 0.000104736461347 8.640000e+00 3600
206 2 -52.231707114602905 45.203915718843021 116.938995033615100 0.000104736461347 8.640000e+00 3600
207 2 56.881285148054836 -101.008164160133234 -36.270662483303049 0.000104736461347 8.640000e+00 3600
208 2 -63.264797734115170 -130.699949735231769 -57.122869889559738 0.000104736461347 8.640000e+00 3600
209 2 -59.240339699215276 88.682522861843054 110.749597648890770 0.000104736461347 8.640000e+00 3600
210 2 16.876862201825865 69.987860089212404 147.937910766385812 0.000104736461347 8.640000e+00 3600
211 2 -114.448143747269725 82.744317692536342 83.340932615583881 0.000104736461347 8.640000e+00 3600
212 2 127.394026361016671 -25.082502729575680 -11.040033630920291 0.000104736461347 8.640000e+00 3600
213 2 22.817756955198412 -86.781700253063690 93.587936738391392 0.000104736461347 8.640000e+00 3600
214 2 1.461131377599555 55.175079542602369 -72.254457578767074 0.000104736461347 8.640000e+00 3600
215 2 -135.777142249840949 -9.180358180282601 -51.691556243115329 0.000104736461347 8.640000e+00 3600
216 2 108.280890031074691 105.342819741837076 63.331489413400057 0.000104736461347 8.640000e+00 3600
217 2 18.474950951225008 85.834002170280556 28.847863341650285 0.000104736461347 8.640000e+00 3600
218 2 -178.195703400824470 -20.095117720102607 54.984268672487843 0.000104736461347 8.640000e+00 3600
219 2 7.968648318190558 -47.988387120119029 164.287138568998046 0.000104736461347 8.640000e+00 3600
220 2 123.847429578415685 131.195851149657415 -47.905111639131448 0.000104736461347 8.640000e+00 3600
221 2 63.313472293472870 -110.201410220042320 57.821251626287733 0.000104736461347 8.640000e+00 3600
222 2 -160.834707284610062 -35.054571063229972 62.737426333895222 0.000104736461347 8.640000e+00 3600
223 2 -17.009256279181169 -95.201864933806760 106.893961275025177 0.000104736461347 8.640000e+00 3600
224 2 65.103053661263957 61.740871862451883 -141.756420011215312 0.000104736461347 8.640000e+00 3600
225 2 -34.832266224709002 -84.453296912890394 81.430402219068071 0.000104736461347 8.640000e+00 3600
226 2 -41.331038051613980 -0.788131270194380 73.213108332020326 0.000104736461347 8.640000e+00 3600
227 2 125.664996731145791 41.201829563799251 28.088264892440055 0.000104736461347 8.640000e+00 3600
228 2 -65.378100094305424 -16.376824327345251 80.350215419925362 0.000104736461347 8.640000e+00 3600
229 2 65.685766617440578 -23.110062164534682 -23.368873777502106 0.000104736461347 8.640000e+00 3600
230 2 -95.374401006835527 -59.112664416782899 -46.718286587463581 0.000104736461347 8.640000e+00 3600
231 2 17.496186058958084 23.271283994117418 -39.152849864542695 0.000104736461347 8.640000e+00 3600
232 2 -38.285195842282164 5.775420405708778 59.204277287718838 0.000104736461347 8.640000e+00 3600
233 2 186.729871444538134 20.122384659352786 5.809709245138725 0.000104736461347 8.640000e+00 3600
234 2 -23.983435375364294 122.756283466872020 -39.636744188328322 0.000104736461347 8.640000e+00 3600
235 2 149.528783530826502 35.087935309910684 1.443207567519829 0.000104736461347 8.640000e+00 3600
236 2 42.396922458805882 120.047596798384603 11.984820264154012 0.000104736461347 8.640000e+00 3600
237 2 -111.968310146006658 -17.328094008361571 -27.093043898653523 0.000104736461347 8.640000e+00 3600
238 2 82.743870270689754 -57.540966264032413 6.385463762341260 0.000104736461347 8.640000e+00 3600
239 2 21.307390108046786 -129.098472122613828 23.322355652034503 0.000104736461347 8.640000e+00 3600
240 2 86.961574838625637 -52.604154634227740 -17.208240364512243 0.000104736461347 8.640000e+00 3600
241 2 -42.697776932296087 103.560955422766426 88.045475607430518 0.000104736461347 8.640000e+00 3600
242 2 -26.203488786408055 72.817505555522771 167.323379935464374 0.000104736461347 8.640000e+00 3600
243 2 -41.367063223948641 34.164478799330951 -15.266086637036558 0.000104736461347 8.640000e+00 3600
244 2 26.915144254397120 -141.991628883113918 64.328942091652578 0.000104736461347 8.640000e+00 3600
245 2 124.857897915464051 44.118430427218478 7.565183677024589 0.000104736461347 8.640000e+00 3600
246 2 1.929159756579459 -85.905992259726062 -150.048854556747671 0.000104736461347 8.640000e+00 3600
247 2 2.949804848213886 32.174246015907968 98.800145765934204 0.000104736461347 8.640000e+00 3600
248 2 -156.734018894967960 60.732259894616973 6.381177144219255 0.000104736461347 8.640000e+00 3600
249 2 -22.311107260516451 166.085195548377527 58.596669094627266 0.000104736461347 8.640000e+00 3600
250 2 -18.060114032240271 127.667562255739895 12.260802641127427 0.000104736461347 8.640000e+00 3600
251 2 20.252230093804805 67.673540833273634 -49.913658440986673 0.000104736461347 8.640000e+00 3600
252 2 -97.981705877917349 29.661602568589458 137.886168796910596 0.000104736461347 8.640000e+00 3600
253 2 -35.035837904480552 -145.589803111661524 -21.104267204596585 0.000104736461347 8.640000e+00 3600
254 2 -75.096155701294379 -37.061511839567693 125.287125821512163 0.000104736461347 8.640000e+00 3600
255 2 -36.218978845802667 -41.274879939284681 -52.447114713607256 0.000104736461347 8.640000e+00 3600
256 2 -26.534407720620838 -91.219754098472990 -76.084212068702186 0.000104736461347 8.640000e+00 3600
257 2 -28.240259762264969 -143.112305096026802 -1.853984676960269 0.000104736461347 8.640000e+00 3600
258 2 77.573469695056701 -96.372125340039659 107.137117365964485 0.000104736461347 8.640000e+00 3600
259 2 -46.598406732558303 8.937186933454260 -88.367296806584108 0.000104736461347 8.640000e+00 3600
260 2 19.659467287477110 -105.942433161544798 102.362656917253105 0.000104736461347 8.640000e+00 3600
261 2 -102.214379064100470 -48.532563170329269 146.921720777643515 0.000104736461347 8.640000e+00 3600
262 2 133.936168716018159 -36.668134915109874 -68.393382549444937 0.000104736461347 8.640000e+00 3600
263 2 34.423678804196882 -62.924234844335352 132.690948217685190 0.000104736461347 8.640000e+00 3600
264 2 12.186757157442953 81.365611797976996 -120.527120083641108 0.000104736461347 8.640000e+00 3600
265 2 -61.435388081085094 -117.365997348357354 -66.924624799580357 0.000104736461347 8.640000e+00 3600
266 2 -36.133272011560067 18.252541033087748 -169.596353359202794 0.000104736461347 8.640000e+00 3600
267 2 19.818174895876712 -84.632020258746593 -97.150700792029014 0.000104736461347 8.640000e+00 3600
268 2 47.074315370083298 16.183940813950485 -22.911482858186183 0.000104736461347 8.640000e+00 3600
269 2 -79.890634745034021 0.623537598322803 98.296195099127388 0.000104736461347 8.640000e+00 3600
270 2 98.620106782578887 28.583883618124577 93.078453984346865 0.000104736461347 8.640000e+00 3600
271 2 54.695839501418114 -141.604388691399208 1.652835856085768 0.000104736461347 8.640000e+00 3600
272 2 -113.436064360268972 64.743857103222098 -25.739966768574746 0.000104736461347 8.640000e+00 3600
273 2 12.132859224367492 -82.910520634850386 167.705470898781556 0.000104736461347 8.640000e+00 3600
274 2 -166.516714528858074 -18.669667014379151 30.994590299982974 0.000104736461347 8.640000e+00 3600
275 2 85.280681537117346 -47.411490322653812 30.660773536242584 0.000104736461347 8.640000e+00 3600
276 2 -130.807786994104276 -38.669305162183456 -47.082716188612153 0.000104736461347 8.640000e+00 3600
277 2 108.888388403088328 -99.456389430697001 -19.535610406874174 0.000104736461347 8.640000e+00 3600
278 2 26.066698309674194 -164.837308899734126 -1.394738066024831 0.000104736461347 8.640000e+00 3600
279 2 53.485949445440717 -104.755946266581802 126.675011698574849 0.000104736461347 8.640000e+00 3600
280 2 -83.104580601674613 92.685483023058111 -98.868741754679689 0.000104736461347 8.640000e+00 3600
281 2 171.882839409788744 45.197003881599827 37.681250791869708 0.000104736461347 8.640000e+00 3600
282 2 84.629675044152791 -101.516183933762392 28.582964654545904 0.000104736461347 8.640000e+00 3600
283 2 -165.136120056729709 84.819681493652780 21.255193916872781 0.000104736461347 8.640000e+00 3600
284 2 11.034252688487522 124.016404350812152 134.831436812611457 0.000104736461347 8.640000e+00 3600
285 2 108.624958007390944 -68.463310392742528 -17.961743304227458 0.000104736461347 8.640000e+00 3600
286 2 79.077326727973329 -70.708167623967185 -78.376103305758789 0.000104736461347 8.640000e+00 3600
287 2 31.810511962682860 -80.762246573166138 123.170695757044484 0.000104736461347 8.640000e+00 3600
288 2 -116.135729663632574 -21.598808765633496 -40.058865085680821 0.000104736461347 8.640000e+00 3600
289 2 122.735414688218768 66.472984354581158 -109.890760231850749 0.000104736461347 8.640000e+00 3600
290 2 -68.361208480884798 -137.623826302158051 64.440433697170107 0.000104736461347 8.640000e+00 3600
291 2 26.680383757396690 -124.110549817070748 -132.420575671819790 0.000104736461347 8.640000e+00 3600
292 2 -8.989894744548279 153.376026687924053 19.608799081626461 0.000104736461347 8.640000e+00 3600
293 2 -18.274656755386083 -44.104749932628224 108.856009252134953 0.000104736461347 8.640000e+00 3600
294 2 -51.004698535390432 12.157988517230425 79.546366971115418 0.000104736461347 8.640000e+00 3600
295 2 139.611014376578197 -64.383119602604424 56.418451198648597 0.000104736461347 8.640000e+00 3600
296 2 -32.363804480140367 -71.731740278886221 -88.757613002148346 0.000104736461347 8.640000e+00 3600