ITEM: TIMESTEP
9000
ITEM: NUMBER OF ATOMS
6100
ITEM: BOX BOUNDS ff ff ff
-1.0000000000000000e+03 1.0000000000000000e+03
-1.0000000000000000e+03 1.0000000000000000e+03
-1.0000000000000000e+03 1.0000000000000000e+03
ITEM: ATOMS id type diameter x y z vx vy vz fx fy fz
3 1 7.68 -174.544 -22.9821 -44.4141 0.00391372 0.000364405 0.000917813 15.4587 1.43908 3.62486
10 1 7.68 -56.2641 -113.739 -93.3209 0.00107122 0.00266103 0.00211 4.22956 10.5123 8.33422
20 1 7.68 -155.812 -37.5638 -90.0349 0.00340105 0.000928661 0.00195985 13.4343 3.66861 7.74118
25 1 7.68 -96.8328 -36.0289 -151.303 0.00227653 0.000771301 0.00332739 8.99413 3.04529 13.1427
30 1 7.68 -4.94333 -24.0343 -19.9877 0.000191546 0.000663224 0.000114159 0.75925 2.62234 0.447627
35 1 7.68 -109.563 -74.5066 -10.8912 0.00254363 0.00175801 0.000338081 10.0479 6.94497 1.33518
44 1 7.68 -150.471 -89.2753 -61.7237 0.00317403 0.00203034 0.00141877 12.5365 8.01962 5.60364
57 1 7.68 -47.8324 -113.199 -3.86123 0.00110258 0.00236472 0.000133229 4.35592 9.33838 0.526626
62 1 7.68 -115.882 -26.9052 -6.7261 0.00256039 0.000547233 0.000281534 10.113 2.16188 1.11324
67 1 7.68 -28.0417 -70.213 -126.906 0.000441801 0.00159111 0.00292501 1.74318 6.28472 11.5557
72 1 7.68 -87.5612 -129.85 -82.1153 0.00189407 0.00291257 0.00174332 7.48187 11.5043 6.88441
79 1 7.68 -9.94997 -130.201 -59.5583 0.000135747 0.00291124 0.00139704 0.535245 11.4988 5.51861
93 1 7.68 -163.63 -35.7789 -19.3417 0.00354329 0.000762036 0.000564515 13.9953 3.00868 2.22982
122 1 7.68 -74.4932 -76.6439 -62.6245 0.00167472 0.00184658 0.00150045 6.61495 7.29526 5.92882
125 1 7.68 -57.0385 -20.2252 -167.119 0.00122467 0.000548312 0.00378519 4.83616 2.16527 14.9523
127 1 7.68 -79.5403 -32.0674 -13.204 0.00176917 0.000529095 9.29035e-05 6.9887 2.08912 0.365381
149 1 7.68 -124.375 -113.887 -68.4288 0.00281873 0.00250243 0.00154403 11.1332 9.88329 6.09852
150 1 7.68 -68.8212 -105.884 -93.3535 0.00156728 0.0024273 0.00195438 6.1916 9.58914 7.71832
157 2 8.64 -61.7539 -75.2637 -17.7829 0.0012974 0.00178163 0.000314792 7.29601 10.0211 1.77033
162 2 8.64 -13.7601 -107.937 -150.533 0.000439128 0.00221679 0.00326834 2.46922 12.4644 18.378
166 2 8.64 -37.9133 -31.8365 -119.691 0.000831123 0.000680668 0.00273794 4.67371 3.82752 15.4
178 2 8.64 -94.2474 -18.1059 -102.071 0.00207425 0.000642033 0.00242163 11.6648 3.61469 13.6217
187 2 8.64 -32.454 -105.836 -140.359 0.000760272 0.00229118 0.003044 4.27507 12.884 17.1172
193 2 8.64 -120.361 -60.3699 -108.661 0.00264077 0.00142992 0.00252898 14.8508 8.04216 14.2232
208 2 8.64 -63.1088 -130.378 -56.9533 0.00143932 0.00297014 0.00156562 8.09317 16.7037 8.80894
215 2 8.64 -135.459 -9.1707 -51.5781 0.00293222 8.9047e-05 0.00104684 16.4903 0.499697 5.88505
230 2 8.64 -95.1261 -58.9689 -46.5974 0.00229229 0.00132663 0.00111541 12.8956 7.46016 6.27294
237 2 8.64 -111.696 -17.2794 -27.0341 0.00251163 0.000449681 0.00054354 14.1254 2.52787 3.05586
253 2 8.64 -34.9396 -145.254 -21.0565 0.000888289 0.00310049 0.000440455 4.99647 17.436 2.47634
255 2 8.64 -36.1227 -41.2047 -52.3476 0.00088918 0.000647063 0.000918264 5.00686 3.6301 5.15649
256 2 8.64 -26.4579 -90.9676 -75.8947 0.000705963 0.00232751 0.00174884 3.97263 13.0967 9.83661
257 2 8.64 -28.1819 -142.765 -1.82775 0.000538483 0.00320352 0.000242281 3.02765 18.0178 1.36623
265 2 8.64 -61.2787 -117.08 -66.749 0.00144592 0.00264134 0.00162078 8.1322 14.8551 9.11795
276 2 8.64 -130.492 -38.5794 -46.975 0.00291706 0.000829573 0.000994212 16.4057 4.66405 5.58989
288 2 8.64 -115.853 -21.5468 -39.9709 0.00261053 0.000479662 0.000811516 14.683 2.69737 4.56188
296 2 8.64 -32.2939 -71.5371 -88.5186 0.000645158 0.00179649 0.00220656 3.62819 10.1082 12.4149
305 2 8.64 -8.07251 -91.142 -49.0752 0.000160328 0.00226971 0.00114151 0.902171 12.769 6.42054
307 2 8.64 -113.142 -114.322 -64.918 0.00253142 0.00256574 0.00148024 14.2366 14.4293 8.32527
315 2 8.64 -4.16906 -104.851 -102.636 2.48368e-05 0.00243743 0.00241975 0.137855 13.7091 13.6095
321 2 8.64 -49.1165 -109.351 -22.1586 0.00106758 0.00240143 0.000336986 6.00405 13.5046 1.8926
323 2 8.64 -57.6486 -30.5124 -129.076 0.00120761 0.000649807 0.00289698 6.79008 3.65436 16.2922
328 2 8.64 -92.0323 -65.9279 -36.843 0.00221952 0.00147432 0.000614648 12.4876 8.29254 3.45355
340 2 8.64 -103.083 -56.2245 -79.8091 0.00224904 0.00133227 0.00194085 12.6482 7.49554 10.9175
352 2 8.64 -73.5307 -6.27557 -60.808 0.00172783 2.56482e-05 0.00135356 9.71821 0.142719 7.61205
360 2 8.64 -168.469 -12.6923 -65.367 0.00378631 9.19404e-05 0.00145175 21.2949 0.51547 8.16419
364 2 8.64 -146.961 -15.0315 -18.4137 0.00319001 0.00044592 0.000423677 17.9404 2.50912 2.38314
366 2 8.64 -18.0342 -62.4526 -165.309 0.000485491 0.00138141 0.00364133 2.7304 7.76717 20.4774
378 2 8.64 -20.1762 -12.8533 -82.8411 0.000345775 0.000477209 0.00186416 1.94241 2.68522 10.4844
381 2 8.64 -50.6162 -71.5483 -142.12 0.00099894 0.00164703 0.00324214 5.61611 9.26179 18.2345
394 2 8.64 -75.9866 -38.8284 -29.7403 0.00159862 0.000926649 0.000386594 8.98806 5.21399 2.16894
396 2 8.64 -36.682 -76.7681 -72.5532 0.00106837 0.00192486 0.0015742 6.01503 10.8317 8.85411
410 2 8.64 -128.673 -65.2006 -69.6876 0.00284131 0.001666 0.00178161 15.9806 9.37034 10.021
413 2 8.64 -30.1781 -53.2084 -4.14647 0.000639759 0.00102317 -7.09871e-05 3.59751 5.75212 -0.40105
431 2 8.64 -12.5494 -0.71753 -4.70415 0.000334865 -4.75127e-05 0.000182403 1.88461 -0.268003 1.02812
445 2 8.64 -60.1056 -79.7289 -123.373 0.00108956 0.00176212 0.00286911 6.12426 9.9134 16.1363
449 2 8.64 -31.1469 -44.9478 -107.498 0.000658262 0.000880372 0.00242906 3.70115 4.94756 13.6619
450 2 8.64 -43.8905 -176.339 -10.3761 0.00096552 0.00391935 0.000244081 5.42891 22.0436 1.37269
476 3 9.6 -9.78468 -1.29911 -71.6189 0.000270896 2.08218e-05 0.00161481 2.09003 0.160142 12.457
480 3 9.6 -30.6767 -4.31834 -127.533 0.000739422 8.35449e-05 0.00275043 5.70479 0.644347 21.2148
485 3 9.6 -134.356 -23.2981 -56.1226 0.00292575 0.000396378 0.00100132 22.5709 3.05166 7.71676
509 3 9.6 -89.5289 -151.922 -18.3809 0.00210053 0.00332529 0.000446761 16.2066 25.6527 3.44693
514 3 9.6 -23.6612 -73.3498 -78.3825 0.000379719 0.00184823 0.00201102 2.92512 14.2665 15.5229
518 3 9.6 -138.003 -54.0345 -39.0352 0.00296859 0.00105107 0.000916964 22.8995 8.10645 7.07508
519 3 9.6 -79.4596 -93.5994 -4.35966 0.00174651 0.00210986 7.00165e-05 13.4727 16.277 0.539041
521 3 9.6 -144.999 -54.5098 -96.7534 0.00315697 0.00135694 0.00215725 24.3545 10.4692 16.6426
529 3 9.6 -26.2946 -109.784 -66.1671 0.000416167 0.0025257 0.00187859 3.20315 19.4882 14.5083
530 3 9.6 -145.885 -46.7673 -63.7629 0.00332825 0.00121995 0.0015121 25.6795 9.41771 11.664
552 3 9.6 -99.3797 -37.9037 -86.9015 0.00223516 0.000868871 0.00224881 17.2466 6.70414 17.353
554 3 9.6 -51.2833 -34.6312 -49.2216 0.00109926 0.000811666 0.00114977 8.47635 6.26322 8.86935
561 3 9.6 -54.7773 -57.2958 -92.3253 0.00128151 0.00125267 0.00216162 9.88682 9.66197 16.6787
564 3 9.6 -75.7967 -140.587 -41.8551 0.00182174 0.00316626 0.000958363 14.0578 24.4283 7.39241
573 3 9.6 -67.3989 -2.66616 -104.337 0.00146263 -9.87684e-05 0.0025287 11.2843 -0.765988 19.5143
609 3 9.6 -102.719 -52.1073 -65.7725 0.00221635 0.0012016 0.00149456 17.0964 9.2706 11.5309
626 3 9.6 -163.563 -27.9409 -35.8706 0.00365003 0.00059555 0.000754203 28.1602 4.59283 5.81568
627 3 9.6 -54.7152 -87.6238 -78.187 0.00115434 0.00211229 0.00160345 8.90228 16.2973 12.3673
639 3 9.6 -46.7403 -7.36816 -59.0858 0.00104521 7.84152e-05 0.00125971 8.06417 0.605078 9.71727
660 3 9.6 -148.378 -11.3561 -105.322 0.00327069 8.61151e-05 0.00242396 25.233 0.662995 18.7007
669 3 9.6 -39.716 -52.7374 -154.151 0.000800043 0.00138254 0.00340651 6.17067 10.6658 26.278
689 3 9.6 -170.038 -29.0375 -12.0996 0.00356622 0.000713835 0.000247105 27.5067 5.51512 1.90401
697 3 9.6 -148.948 -6.09918 -30.4086 0.00333119 0.000181452 0.000708841 25.6995 1.40193 5.469
722 3 9.6 -40.8138 -174.902 -35.2251 0.000984569 0.00386742 0.000893743 7.59562 29.8369 6.89632
724 3 9.6 -45.4625 -86.9141 -130.111 0.000837823 0.00197664 0.00304794 6.45834 15.2489 23.514
726 3 9.6 -164.72 -41.2979 -74.9886 0.00349541 0.000997552 0.00175062 26.9655 7.69684 13.5085
731 3 9.6 -58.7882 -14.0406 -49.5506 0.00127727 0.000117786 0.00115253 9.8511 0.905924 8.89252
732 3 9.6 -3.31093 -38.0805 -8.45994 0.000265698 0.000753803 1.94026e-05 2.0546 5.81304 0.147226
738 3 9.6 -78.8312 -46.256 -144.801 0.00164324 0.00125498 0.00332195 12.6767 9.68287 25.6302
742 3 9.6 -130.316 -94.6462 -19.7133 0.00303669 0.00215001 0.000618082 23.429 16.5868 4.77291
758 3 9.6 -1.68213 -130.366 -100.942 -5.49797e-05 0.00261849 0.00224197 -0.425559 20.195 17.2966
763 3 9.6 -65.4891 -136.964 -18.551 0.00159985 0.0030013 0.000423036 12.3448 23.154 3.26265
770 3 9.6 -74.5593 -1.66218 -90.6693 0.00161636 9.727e-06 0.00202723 12.4682 0.0750918 15.6412
773 3 9.6 -33.2992 -98.7852 -114.309 0.000737937 0.00230167 0.00274897 5.69175 17.7579 21.2097
781 3 9.6 -22.2923 -137.658 -22.7961 0.000521403 0.00293579 0.000487631 4.02238 22.6433 3.76353
784 3 9.6 -154.224 -93.3922 -19.6514 0.00334253 0.00225723 0.000529602 25.786 17.4168 4.08586
787 3 9.6 -49.8114 -97.6332 -57.6729 0.00122455 0.00211663 0.00140095 9.44989 16.3277 10.811
788 3 9.6 -93.8528 -42.3615 -29.6248 0.00227942 0.000764409 0.000471386 17.5913 5.89208 3.62792
827 3 9.6 -162.214 -23.4343 -67.167 0.00359839 0.000385687 0.00153403 27.7604 2.97541 11.8352
828 3 9.6 -20.2462 -87.65 -15.345 0.00033983 0.00194148 0.000255789 2.62022 14.9771 1.97101
829 3 9.6 -25.1519 -90.1152 -137.317 0.00059182 0.0020758 0.00316518 4.56503 16.0143 24.4167
846 3 9.6 -169.46 -42.9933 -51.8528 0.00372069 0.000872639 0.00108846 28.7038 6.73107 8.39626
863 3 9.6 -47.8691 -35.3628 -22.9332 0.00103323 0.000732319 0.000539259 7.97159 5.64689 4.16042
896 3 9.6 -4.78994 -43.1505 -164.44 0.000247977 0.00138512 0.00364496 1.91874 10.6948 28.123
901 3 9.6 -75.6863 -137.528 -76.8574 0.00167509 0.00309592 0.00169636 12.9224 23.8825 13.0856
903 3 9.6 -62.6032 -32.4648 -32.1272 0.00136298 0.000698018 0.000581872 10.5128 5.38327 4.4845
906 3 9.6 -76.6995 -169.308 -21.4535 0.0018117 0.00364671 0.00061092 13.9787 28.1363 4.71298
916 3 9.6 -118.801 -19.6974 -64.9832 0.00242943 0.000402598 0.0014368 18.7375 3.10523 11.0856
925 3 9.6 -76.6961 -50.1936 -56.5897 0.00175944 0.0011272 0.00131132 13.5739 8.69549 10.1171
930 3 9.6 -77.9409 -99.7082 -112.119 0.00195421 0.00229031 0.0025177 15.0804 17.6683 19.4264
933 3 9.6 -123.623 -99.3241 -84.1844 0.00271083 0.00229561 0.00187748 20.913 17.7096 14.4832
936 3 9.6 -54.1654 -51.3902 -161.775 0.00123976 0.00112054 0.00368013 9.56473 8.64252 28.3902
968 3 9.6 -61.4826 -133.159 -95.6599 0.00147785 0.00294813 0.00203894 11.4018 22.7424 15.7243
969 3 9.6 -45.3817 -86.0963 -106.606 0.000960482 0.00206574 0.00258423 7.40785 15.937 19.9385
972 3 9.6 -82.4952 -62.4141 -49.8714 0.00185652 0.00145987 0.00125722 14.3227 11.2645 9.70131
989 3 9.6 -149.312 -49.9126 -84.0357 0.00329403 0.00109907 0.00191672 25.4132 8.47932 14.7886
992 3 9.6 -111.68 -11.6046 -45.5908 0.00251622 0.00010215 0.00103054 19.4116 0.786078 7.9497
1007 3 9.6 -101.178 -53.0184 -137.086 0.00226089 0.00133235 0.00312159 17.4424 10.2793 24.0826
1008 3 9.6 -93.7694 -50.7046 -37.8488 0.0022412 0.00115495 0.000813251 17.2981 8.91091 6.27657
1017 3 9.6 -18.1763 -16.9987 -176.57 0.000266428 0.00036693 0.00398492 2.04951 2.82708 30.7458
1018 3 9.6 -79.4458 -46.2435 -132.547 0.00182393 0.00119304 0.00286347 14.0704 9.20689 22.0884
1019 3 9.6 -159.512 -14.7387 -48.5941 0.00359462 0.00014012 0.00106338 27.7326 1.0781 8.20211
1023 3 9.6 -79.7599 -66.7747 -129.194 0.00198073 0.00137042 0.0028568 15.2886 10.5659 22.0388
1028 3 9.6 -41.3419 -131.058 -62.3427 0.000898768 0.00301293 0.00143726 6.93338 23.2444 11.0879
1065 3 9.6 -97.2228 -102.038 -53.5671 0.00232359 0.00239196 0.00120898 17.9275 18.4547 9.32706
1077 3 9.6 -18.7696 -97.3575 -88.7624 0.000319569 0.0023216 0.00193514 2.46217 17.912 14.9255
1085 3 9.6 -26.8806 -28.8582 -105.381 0.000580268 0.000654053 0.00235312 4.47565 5.04576 18.1553
1087 3 9.6 -94.4038 -57.6272 -99.9576 0.00218775 0.001303 0.00240853 16.8773 10.0522 18.584
1109 3 9.6 -28.5498 -159.095 -69.8186 0.000708713 0.00361902 0.00142948 5.46807 27.9187 11.0226
1121 3 9.6 -87.2311 -10.1368 -127.169 0.00190961 0.000263878 0.00272153 14.7337 2.03552 20.9922
1132 3 9.6 -1.73643 -69.9291 -66.1533 -0.00013275 0.0015583 0.00165998 -1.0309 12.0216 12.8081
1139 3 9.6 -135.437 -125.033 -2.2629 0.00306267 0.00265472 0.000109208 23.6273 20.4799 0.842867
1162 3 9.6 -64.7004 -151.753 -21.8377 0.00154698 0.00330944 0.000734728 11.9391 25.5235 5.67478
1170 3 9.6 -77.4824 -8.66368 -138.882 0.00161084 0.000237083 0.00305816 12.4228 1.83046 23.5925
1210 3 9.6 -1.42826 -79.6186 -118.856 -3.78138e-05 0.001696 0.00252982 -0.295433 13.0824 19.5128
1215 3 9.6 -29.4536 -14.1764 -69.5752 0.000593962 0.000275 0.00151188 4.57894 2.12262 11.663
1218 3 9.6 -39.3014 -23.4829 -155.64 0.00100898 0.000605452 0.00343819 7.78876 4.67131 26.5229
1222 3 9.6 -117.557 -40.1816 -129.505 0.00278601 0.000931058 0.00283921 21.4953 7.1833 21.9013
1227 3 9.6 -16.1804 -2.17421 -27.8722 0.000388353 1.94378e-05 0.000429059 2.9953 0.148238 3.30649
1228 3 9.6 -77.8668 -78.1029 -95.4067 0.00184833 0.00175429 0.0022271 14.2611 13.5334 17.1814
1248 3 9.6 -45.1563 -152.501 -90.291 0.00105617 0.00345625 0.00211116 8.14887 26.6684 16.2867
1249 3 9.6 -61.556 -46.816 -132.626 0.00130162 0.00110958 0.00295121 10.0402 8.56248 22.768
1259 3 9.6 -75.3604 -30.4103 -166.516 0.00162063 0.000934171 0.00382213 12.506 7.21519 29.4963
1296 3 9.6 -67.1939 -21.7464 -51.7821 0.00157372 0.000452807 0.0011568 12.142 3.49233 8.92597
1299 3 9.6 -20.5121 -71.7596 -11.4033 0.000448817 0.00164488 0.000210356 3.46138 12.6901 1.62064
1303 3 9.6 -70.6991 -115.173 -84.1953 0.00169876 0.00268964 0.00175352 13.1065 20.75 13.5244
1332 3 9.6 -25.2637 -27.3199 -176.484 0.000554229 0.00107215 0.00390241 4.27283 8.28399 30.103
1336 3 9.6 -16.104 -0.316964 -165.524 0.000376143 -0.000203082 0.00380474 2.90167 -1.57596 29.3567
1337 3 9.6 -159.872 -60.7698 -61.4481 0.00349664 0.00148149 0.00148475 26.9752 11.4313 11.4547
1353 3 9.6 -30.0716 -38.7208 -32.6387 0.00065318 0.000858409 0.000778768 5.03758 6.62278 6.00674
1354 3 9.6 -1.55297 -92.579 -113.989 -7.01585e-05 0.00216761 0.00255967 -0.544873 16.7231 19.7447
1355 3 9.6 -62.0033 -104.915 -57.9857 0.00139462 0.00234525 0.00149706 10.7597 18.0922 11.5521
1370 3 9.6 -5.50709 -23.167 -117.582 9.43073e-05 0.000608966 0.00261836 0.72791 4.70134 20.1984
1375 3 9.6 -50.4844 -36.5839 -153.79 0.00116964 0.000980023 0.0034199 9.02482 7.56204 26.3823
1378 3 9.6 -41.8531 -17.9757 -177.442 0.00127138 0.000393312 0.00382853 9.82018 3.03369 29.536
1383 3 9.6 -48.9431 -59.576 -16.3549 0.00111025 0.00132841 0.00032364 8.56484 10.2474 2.49576
1391 3 9.6 -7.14061 -83.0315 -128.198 0.000260674 0.0019573 0.00296484 2.01367 15.1025 22.875
1392 3 9.6 -39.2193 -80.4274 -96.3114 0.000823066 0.00188315 0.00237354 6.34888 14.5294 18.3175
1412 3 9.6 -38.5939 -105.138 -97.1651 0.000878735 0.0025478 0.00222918 6.77958 19.6587 17.198
1422 3 9.6 -20.9654 -22.0835 -64.9733 0.00034437 0.000508473 0.0014528 2.65398 3.92378 11.2079
1424 3 9.6 -48.2544 -163.426 -21.1942 0.00101488 0.00364923 0.000536934 7.82607 28.154 4.14315
1435 3 9.6 -4.28242 -162.99 -16.1287 0.000225144 0.00340457 0.000359883 1.74436 26.2589 2.77585
1444 3 9.6 -65.0065 -65.5432 -37.4344 0.00135218 0.00156536 0.000767026 10.4281 12.0776 5.9145
1450 3 9.6 -93.0837 -30.0373 -123.045 0.00195782 0.000669035 0.00265273 15.0996 5.16067 20.4633
1455 3 9.6 -76.2785 -26.9348 -115.314 0.00178453 0.000533718 0.00265565 13.7681 4.11684 20.4893
1458 3 9.6 -37.2555 -47.6354 -21.2732 0.000728451 0.001089 0.000506456 5.61673 8.4021 3.90603
1460 3 9.6 -149.579 -8.66751 -77.8238 0.00343382 0.00019908 0.00179071 26.4936 1.53651 13.8165
1469 3 9.6 -60.7158 -98.6945 -18.4332 0.00132809 0.00217467 0.000311678 10.2454 16.7769 2.4041
1470 3 9.6 -117.925 -65.8757 -88.4762 0.00268589 0.00160739 0.00212106 20.7219 12.4034 16.3667
1475 3 9.6 -57.2473 -134.295 -33.1616 0.00127236 0.00302508 0.00079485 9.81597 23.3386 6.1326
1477 3 9.6 -83.4673 -24.6108 -56.1184 0.00188177 0.000481476 0.00133451 14.5171 3.71137 10.2973
1487 3 9.6 -41.9815 -79.0201 -160.066 0.000894159 0.00179923 0.00350207 6.89751 13.8797 27.0155
1488 3 9.6 -114.492 -30.9364 -77.6392 0.00261029 0.000691123 0.00170432 20.1392 5.32998 13.1489
1490 3 9.6 -103.265 -86.2105 -30.572 0.00245821 0.00203525 0.000737204 18.969 15.7023 5.68501
1500 3 9.6 -21.5712 -118.578 -94.0174 0.000523096 0.00257531 0.00210922 4.03381 19.8654 16.2731
1518 3 9.6 -3.06396 -12.7428 -171.808 -7.78434e-05 0.000144944 0.00395192 -0.600037 1.11452 30.4938
1519 3 9.6 -24.1291 -136.245 -75.0923 0.000455391 0.00293299 0.00164362 3.51066 22.6245 12.6799
1524 3 9.6 -148.032 -69.6763 -56.6845 0.0033865 0.00170944 0.00141656 26.1287 13.1878 10.9306
1526 3 9.6 -52.1979 -90.7124 -25.263 0.00120147 0.00201664 0.000637107 9.26938 15.5573 4.91359
1532 3 9.6 -17.4557 -76.0601 -53.1016 0.000383073 0.00179388 0.00106489 2.95546 13.8412 8.21012
1536 3 9.6 -3.5443 -34.6681 -155.999 0.000199287 0.00104083 0.00339098 1.54316 8.03536 26.1564
1545 3 9.6 -71.0876 -58.6583 -158.892 0.00154074 0.00130609 0.00344115 11.8857 10.0761 26.5455
1547 3 9.6 -72.805 -39.8058 -61.1556 0.0016207 0.000809644 0.00135865 12.5014 6.24485 10.4826
1562 3 9.6 -79.359 -125.594 -16.5505 0.00182451 0.00283417 0.000347187 14.0763 21.8655 2.67743
1566 3 9.6 -19.0997 -129.939 -108.254 0.000384879 0.00272971 0.00251339 2.96954 21.0553 19.3922
1567 3 9.6 -92.9243 -94.8635 -97.6286 0.00216369 0.00206021 0.00226812 16.6945 15.8909 17.4986
1568 3 9.6 -31.1266 -66.5924 -24.7197 0.000825292 0.00142699 0.000649905 6.37149 11.009 5.01601
1575 3 9.6 -29.9425 -95.3291 -7.4657 0.000640975 0.00217825 4.59112e-05 4.94237 16.8058 0.350456
1580 3 9.6 -118.729 -102.722 -32.9881 0.0027338 0.00233883 0.000936399 21.0928 18.0434 7.22989
1582 3 9.6 -23.9149 -157.073 -80.9959 0.000462043 0.00344283 0.00183544 3.56223 26.5608 14.1605
1584 3 9.6 -64.904 -148.827 -48.5749 0.00144961 0.00333969 0.00117787 11.1818 25.7665 9.08853
1588 3 9.6 -39.9835 -29.8045 -136.06 0.00104263 0.000811588 0.00295023 8.04537 6.26426 22.7566
1593 3 9.6 -70.2623 -84.6139 -131.381 0.00156054 0.00211335 0.00309156 12.0393 16.3099 23.8518
1604 3 9.6 -83.379 -149.646 -0.402377 0.00202771 0.00334161 3.07716e-05 15.6447 25.7803 0.234201
1610 3 9.6 -59.9173 -53.8087 -47.5973 0.00114455 0.00120757 0.00108714 8.82532 9.31682 8.3858
1611 3 9.6 -58.6486 -0.556398 -143.213 0.00153001 -5.77817e-05 0.00317528 11.809 -0.44566 24.4991
1628 3 9.6 -43.3674 -67.4346 -39.987 0.00104049 0.00148234 0.00089229 8.02778 11.4361 6.88272
1644 3 9.6 -53.0317 -62.1179 -156.276 0.00113666 0.00155193 0.00342451 8.76868 11.9758 26.4156
1645 3 9.6 -41.072 -97.7113 -5.16148 0.00108916 0.00231104 -1.9685e-05 8.40791 17.8318 -0.15531
1655 3 9.6 -78.4922 -77.9205 -76.1841 0.00169372 0.00184773 0.00171104 13.0656 14.2552 13.2006
1670 3 9.6 -88.6314 -121.921 -49.241 0.00204234 0.00282075 0.00124914 15.7562 21.7618 9.63907
1672 3 9.6 -63.7277 -88.2966 -95.2496 0.00146374 0.00187397 0.002229 11.2925 14.4549 17.1999
1674 3 9.6 -145.558 -3.0678 -14.4189 0.00316367 7.38482e-06 0.000283975 24.4053 0.0559583 2.18874
1679 3 9.6 -125.174 -47.1054 -90.1857 0.00284788 0.00104718 0.00217197 21.9702 8.07964 16.7601
1680 3 9.6 -90.5529 -31.2141 -44.2234 0.00218062 0.000691568 0.000953413 16.8261 5.33493 7.35501
1685 3 9.6 -90.9124 -13.6942 -63.4351 0.00210056 0.000193214 0.00143588 16.2074 1.48852 11.0771
1688 3 9.6 -11.0738 -77.6564 -34.9242 0.000378984 0.00188203 0.00077414 2.93019 14.5282 5.97433
1690 3 9.6 -58.3135 -115.776 -45.5548 0.00145385 0.00260485 0.00121076 11.2237 20.0948 9.34481
1697 3 9.6 -117.006 -106.656 -5.49002 0.00267997 0.00247921 0.000295923 20.6761 19.1285 2.28671
1704 3 9.6 -113.316 -34.3642 -51.5129 0.00252246 0.00061381 0.00114532 19.4599 4.73222 8.83488
1709 3 9.6 -67.8558 -80.8448 -51.0617 0.00142855 0.00192114 0.00123552 11.0189 14.8237 9.53357
1715 3 9.6 -139.215 -104.667 -17.4058 0.00323646 0.00247278 0.000441606 24.9707 19.0779 3.40812
1722 3 9.6 -124.895 -12.5949 -16.3583 0.00275339 0.000340507 0.000358811 21.2408 2.62741 2.76794
1723 3 9.6 -27.2114 -121.541 -76.882 0.000582422 0.00262878 0.00185357 4.4903 20.2777 14.2998
1736 3 9.6 -86.2455 -6.83685 -104.701 0.00174573 0.000177487 0.00256184 13.4608 1.3695 19.7687
1745 3 9.6 -22.8667 -4.19844 -106.17 0.000581746 0.000168596 0.00232038 4.49173 1.3019 17.8983
1751 3 9.6 -38.5274 -83.2906 -51.7869 0.001067 0.00197912 0.00122273 8.23425 15.2741 9.43303
1761 3 9.6 -89.4475 -116.448 -107.029 0.00189999 0.00258535 0.0025687 14.6532 19.9474 19.8209
1762 3 9.6 -1.91381 -175.098 -47.7601 4.55935e-05 0.0038092 0.00102578 0.350784 29.3864 7.91233
1775 3 9.6 -25.0606 -60.5923 -17.0104 0.000575133 0.0011465 0.000246 4.43769 8.83938 1.89418
1776 3 9.6 -105.367 -64.3433 -14.2381 0.00237131 0.00141355 0.00040578 18.2961 10.9037 3.1311
1779 3 9.6 -72.7091 -78.4331 -26.0601 0.00144885 0.00180647 0.000499174 11.171 13.9368 3.84833
1782 3 9.6 -154.271 -29.4192 -49.6687 0.0034654 0.000648779 0.00106972 26.7348 5.00561 8.25196
1785 3 9.6 -64.9994 -48.7649 -2.69965 0.00142927 0.000995817 7.88381e-05 11.0269 7.68053 0.608363
1786 3 9.6 -112.236 -79.6264 -77.7494 0.00258559 0.00195279 0.00184429 19.949 15.0686 14.2305
1816 3 9.6 -57.208 -135.144 -106.374 0.00117852 0.00301884 0.00250727 9.0907 23.2887 19.3458
1826 3 9.6 -23.3671 -34.895 -84.7972 0.000470902 0.000694127 0.00203165 3.63097 5.35348 15.6764
1844 3 9.6 -128.617 -36.6765 -23.4124 0.00281058 0.000595496 0.000445459 21.6821 4.59005 3.43648
1849 3 9.6 -59.1239 -166.23 -29.8374 0.00139907 0.00376015 0.000857259 10.7942 29.0112 6.61829
1876 3 9.6 -151.386 -29.3654 -99.3288 0.00336524 0.000657687 0.00205422 25.9657 5.07288 15.8418
1879 3 9.6 -72.3485 -24.2012 -71.1082 0.00169516 0.000473593 0.00159246 13.0776 3.65229 12.2862
1883 3 9.6 -5.96073 -126.582 -29.2494 0.00014817 0.00273034 0.00074571 1.14675 21.0618 5.75366
1903 3 9.6 -113.905 -106.698 -23.3742 0.00247157 0.00251792 0.00049425 19.0661 19.4281 3.81049
1916 3 9.6 -69.4437 -2.73467 -166.61 0.0016162 -4.50675e-05 0.00365232 12.4699 -0.348965 28.1742
1917 3 9.6 -14.7737 -162.125 -43.7829 0.000363001 0.00351306 0.00100427 2.80147 27.1008 7.74834
1926 3 9.6 -109.42 -62.5632 -58.8524 0.00247999 0.00142166 0.00135268 19.1323 10.9683 10.4355
1929 3 9.6 -100.023 -68.4392 -81.7064 0.00231696 0.00157194 0.00200354 17.8756 12.1278 15.4605
1939 3 9.6 -137.032 -98.372 -51.1073 0.00310876 0.00222216 0.00118233 23.9825 17.1428 9.1214
1940 3 9.6 -14.8117 -130.236 -91.5582 0.000313122 0.0027827 0.00205895 2.415 21.4632 15.8842
1944 3 9.6 -15.2123 -43.4145 -147.193 0.000364695 0.00138391 0.00319795 2.81454 10.6844 24.6683
1954 3 9.6 -135.606 -117.301 -38.8126 0.00301032 0.00254372 0.000873453 23.2221 19.6233 6.738
1955 3 9.6 -61.4846 -15.4813 -148.89 0.00141042 0.000310266 0.0031854 10.8813 2.39088 24.5721
1965 3 9.6 -38.6558 -57.5079 -167.079 0.000743265 0.00137887 0.00373641 5.73265 10.638 28.8237
1966 3 9.6 -46.9023 -49.9215 -80.9174 0.00116616 0.00108545 0.00181189 8.99617 8.37234 13.9807
1969 3 9.6 -101.934 -22.2764 -150.381 0.00224899 0.000515655 0.00333191 17.3492 3.97896 25.7046
1972 3 9.6 -71.3187 -143.031 -5.46838 0.00166921 0.00314918 7.51376e-05 12.8806 24.2922 0.578722
1982 3 9.6 -110.072 -9.19437 -75.022 0.00246311 0.000138838 0.00157131 19.0025 1.07107 12.1193
1985 3 9.6 -66.2394 -163.071 -47.3055 0.00143188 0.00367199 0.00106499 11.0456 28.3294 8.21619
1986 3 9.6 -90.5259 -89.7558 -10.322 0.00208715 0.0019942 0.00017378 16.1029 15.3843 1.34054
1987 3 9.6 -26.535 -37.8089 -163.718 0.000617859 0.00119596 0.00375967 4.76746 9.23213 29.0068
1989 3 9.6 -159.035 -23.6337 -85.6264 0.00364147 0.00047468 0.00189301 28.0947 3.66316 14.6049
1990 3 9.6 -98.5706 -132.491 -10.9281 0.00214512 0.00319205 0.000339498 16.5491 24.6282 2.62076
1998 3 9.6 -128.643 -84.516 -69.2459 0.00294354 0.00197679 0.00180987 22.7109 15.2533 13.9687
2000 3 9.6 -46.2247 -125.431 -72.6352 0.00103492 0.00256317 0.00176134 7.98577 19.769 13.5872
2005 3 9.6 -147.873 -74.5913 -45.0497 0.00331382 0.00181383 0.000964826 25.5665 13.9981 7.44318
2006 3 9.6 -10.2313 -103.995 -67.1966 0.000210355 0.00250663 0.00159915 1.62292 19.3407 12.3382
2011 3 9.6 -36.6423 -116.209 -61.0607 0.000924421 0.00266746 0.00161002 7.13593 20.5857 12.4282
2017 3 9.6 -98.7948 -150.906 -33.8336 0.00220792 0.00328631 0.00069885 17.0328 25.352 5.39153
2021 3 9.6 -52.2929 -35.8396 -102.803 0.00107752 0.000847803 0.00236594 8.31077 6.54414 18.2537
2031 3 9.6 -54.3928 -95.6802 -146.96 0.000994662 0.00216929 0.00326429 7.67194 16.7376 25.1813
2036 3 9.6 -48.0833 -43.9222 -91.3571 0.000991342 0.000900135 0.00211849 7.64969 6.94335 16.3449
2061 3 9.6 -42.3808 -89.3309 -15.8206 0.00110804 0.0020264 0.000333204 8.55331 15.6335 2.57122
2082 3 9.6 -170.076 -55.1648 -53.6124 0.00369456 0.00133542 0.00121524 28.5033 10.3045 9.37415
2086 3 9.6 -12.9457 -14.6273 -55.8236 0.000225644 0.000362815 0.00141804 1.74162 2.80133 10.9465
2104 3 9.6 -174.363 -22.4073 -22.5197 0.00377149 0.000627033 0.00087617 29.0901 4.84125 6.7675
2107 3 9.6 -171.754 -55.8492 -8.7673 0.00389649 0.00136331 8.33985e-05 30.0619 10.5168 0.643798
2109 3 9.6 -20.7866 -53.2315 -123.776 0.00037412 0.00127141 0.00296636 2.88372 9.80975 22.8874
2120 3 9.6 -5.81425 -11.3659 -124.529 0.00011175 0.000290498 0.00286713 0.861509 2.24299 22.1173
2155 3 9.6 -46.4722 -111.225 -120.279 0.000832577 0.00263382 0.00274725 6.42031 20.3206 21.1932
2160 3 9.6 -70.8519 -29.8909 -154.578 0.00149727 0.000910419 0.00333383 11.5458 7.0309 25.7101
2165 3 9.6 -37.61 -22.4396 -71.3671 0.00094453 0.000599705 0.0016661 7.28938 4.63009 12.8547
2171 3 9.6 -68.1826 -17.5425 -127.073 0.00148624 0.000322889 0.00279148 11.4655 2.48949 21.5352
2181 3 9.6 -32.7112 -31.4848 -13.7511 0.000682122 0.000709011 0.000121792 5.25992 5.47023 0.934813
2190 3 9.6 -170.142 -29.3077 -54.048 0.00380057 0.000507509 0.00113145 29.3203 3.91504 8.72692
2194 3 9.6 -104.386 -48.209 -22.0389 0.00237936 0.00105763 0.000439745 18.3575 8.15586 3.39027
2200 3 9.6 -69.2622 -129.657 -41.8342 0.00159691 0.00285763 0.000917554 12.32 22.0458 7.07581
2210 3 9.6 -131.222 -29.3961 -107.624 0.00285556 0.000807924 0.00256497 22.0325 6.2363 19.7921
2211 3 9.6 -148.205 -20.788 -3.53284 0.0031364 0.000425795 0.000163514 24.1918 3.28272 1.26317
2223 3 9.6 -106.595 -132.453 -31.3819 0.00249474 0.00306889 0.000686364 19.2482 23.6751 5.29506
2233 3 9.6 -81.7518 -60.6262 -64.0098 0.00183167 0.0015073 0.00165362 14.1329 11.6314 12.7609
2235 3 9.6 -108.578 -31.589 -126.735 0.00249503 0.000753808 0.0026958 19.252 5.81656 20.7945
2236 3 9.6 -93.8276 -39.8583 -59.9255 0.00215684 0.000823968 0.00133112 16.6417 6.35557 10.2695
2240 3 9.6 -48.2808 -7.78751 -23.1838 0.000986057 0.000132938 0.000364309 7.6054 1.02205 2.80947
2243 3 9.6 -34.3403 -97.548 -53.402 0.00083217 0.00205223 0.00122243 6.42106 15.8242 9.42816
2246 3 9.6 -9.01593 -40.673 -67.8935 5.60465e-05 0.000808302 0.00157278 0.427965 6.23409 12.136
2261 3 9.6 -47.6264 -44.3463 -15.7292 0.00108884 0.00101948 0.000215065 8.40045 7.86693 1.6556
2263 3 9.6 -53.4813 -25.6967 -110.123 0.00121667 0.000479764 0.00274024 9.38547 3.69952 21.1458
2264 3 9.6 -145.192 -87.5839 -7.57521 0.00324031 0.00213353 0.000165944 24.9978 16.4611 1.27985
2288 3 9.6 -108.14 -124.387 -54.4669 0.00251932 0.00272291 0.00121552 19.4374 21.0041 9.37793
2298 3 9.6 -36.0593 -166.854 -50.8564 0.000896415 0.00371891 0.00124642 6.91596 28.6888 9.61657
2306 3 9.6 -21.7896 -104.175 -98.9413 0.000440981 0.0025279 0.00231686 3.40074 19.5106 17.875
2340 3 9.6 -42.87 -111.05 -42.4741 0.000987374 0.00227131 0.00107893 7.61686 17.5142 8.32676
2344 3 9.6 -61.8664 -86.6196 -146.856 0.0013118 0.00191205 0.00327822 10.1204 14.7487 25.29
2355 3 9.6 -149.806 -61.3806 -77.9005 0.00332975 0.00157179 0.00178193 25.6884 12.1281 13.7463
2358 3 9.6 -80.553 -107.737 -31.9691 0.00184618 0.00255203 0.000590469 14.2428 19.6921 4.5513
2363 3 9.6 -53.8277 -25.4983 -84.7073 0.00105728 0.000610539 0.00186675 8.15289 4.71076 14.4007
2377 3 9.6 -60.2581 -0.990851 -70.5514 0.00136756 -9.84771e-05 0.00157229 10.5487 -0.763041 12.1281
2391 3 9.6 -23.7295 -113.684 -110.719 0.000574031 0.00255919 0.00264912 4.42684 19.7442 20.4376
2399 3 9.6 -15.0447 -169.27 -77.5144 0.000305089 0.00371183 0.00154727 2.35277 28.6384 11.9333
2417 3 9.6 -84.78 -32.6651 -84.9289 0.00188868 0.0007316 0.00207818 14.5689 5.64446 16.0363
2430 3 9.6 -4.61607 -73.3453 -134.616 6.14427e-05 0.00150226 0.00313221 0.474959 11.5858 24.1656
2450 3 9.6 -1.90293 -41.9495 -88.6241 0.000100335 0.000928944 0.00195256 0.772799 7.16581 15.0637
2452 3 9.6 -9.56176 -184.254 -28.1915 0.000335251 0.00401514 0.000651848 2.58757 30.9766 5.02966
2471 3 9.6 -116.011 -29.2482 -109.579 0.00247439 0.000856564 0.00258437 19.0882 6.61308 19.9417
2481 3 9.6 -134.656 -46.5749 -17.7776 0.00301041 0.000897034 0.000280585 23.2254 6.91673 2.16193
2486 3 9.6 -113.559 -92.2671 -18.8714 0.00248639 0.00199328 0.000458771 19.1793 15.3763 3.53926
2491 3 9.6 -135.262 -12.0796 -7.51115 0.00296475 0.000270965 0.000112656 22.8714 2.0916 0.868872
2504 3 9.6 -103.316 -8.1781 -0.244643 0.00215859 4.02235e-05 0.00015227 16.6492 0.305207 1.17774
2508 3 9.6 -63.3293 -64.1983 -131.81 0.00120593 0.00127645 0.00301591 9.29783 9.83828 23.2689
2514 3 9.6 -123.385 -57.7766 -50.5832 0.00278465 0.00119875 0.00117056 21.481 9.24685 9.02858
2521 3 9.6 -53.1727 -144.228 -89.9316 0.00142161 0.00319621 0.00203006 10.9717 24.6547 15.6612
2525 3 9.6 -21.2748 -122.836 -31.5222 0.000337253 0.00279629 0.000644653 2.59562 21.5743 4.97077
2526 3 9.6 -109.433 -93.8325 -5.15409 0.00235148 0.00203622 0.000160961 18.1395 15.7053 1.24254
2532 3 9.6 -99.881 -105.093 -90.2812 0.0024422 0.00229588 0.00183686 18.8416 17.7101 14.1675
2541 3 9.6 -32.0736 -154.502 -56.4644 0.000821764 0.00346369 0.00133215 6.33912 26.7223 10.2788