ITEM: TIMESTEP
0
ITEM: NUMBER OF ATOMS
6100
ITEM: BOX BOUNDS ff ff ff
-1.0000000000000000e+03 1.0000000000000000e+03
-1.0000000000000000e+03 1.0000000000000000e+03
-1.0000000000000000e+03 1.0000000000000000e+03
ITEM: ATOMS id type diameter x y z vx vy vz fx fy fz
3 1 7.68 -174.968 -23.0215 -44.5136 -0 0 0 15.384 1.43254 3.60793
10 1 7.68 -56.3802 -114.028 -93.5495 -0 0 0 4.21156 10.4592 8.29401
20 1 7.68 -156.18 -37.6644 -90.2473 -0 0 0 13.3685 3.65012 7.70379
25 1 7.68 -97.0795 -36.1124 -151.663 -0 0 0 8.94756 3.03246 13.0793
30 1 7.68 -4.96407 -24.1061 -20.0001 -0 0 0 0.751603 2.60567 0.450368
35 1 7.68 -109.838 -74.6971 -10.9278 -0 0 0 9.99808 6.90986 1.32903
44 1 7.68 -150.815 -89.4953 -61.8774 -0 0 0 12.4767 7.98085 5.57704
57 1 7.68 -47.9519 -113.455 -3.87567 -0 0 0 4.33361 9.29623 0.523506
62 1 7.68 -116.159 -26.9645 -6.7566 -0 0 0 10.0645 2.15088 1.10605
67 1 7.68 -28.0896 -70.3854 -127.223 -0 0 0 1.73757 6.25432 11.4965
72 1 7.68 -87.7664 -130.165 -82.3042 -0 0 0 7.44495 11.4487 6.85336
79 1 7.68 -9.96469 -130.517 -59.7097 -0 0 0 0.534059 11.4437 5.49127
93 1 7.68 -164.014 -35.8614 -19.4029 -0 0 0 13.9281 2.99604 2.21897
122 1 7.68 -74.6746 -76.844 -62.7871 -0 0 0 6.583 7.25777 5.89688
125 1 7.68 -57.1712 -20.2847 -167.529 -0 0 0 4.81452 2.15555 14.8782
127 1 7.68 -79.732 -32.1248 -13.2141 -0 0 0 6.95388 2.08013 0.365969
149 1 7.68 -124.68 -114.158 -68.5961 -0 0 0 11.08 9.83703 6.06937
150 1 7.68 -68.991 -106.147 -93.5653 -0 0 0 6.16014 9.54043 7.68287
157 2 8.64 -61.8945 -75.4567 -17.817 -0 0 0 7.26149 9.97074 1.76184
162 2 8.64 -13.8077 -108.177 -150.888 -0 0 0 2.45791 12.4083 18.2937
166 2 8.64 -38.0034 -31.9102 -119.987 -0 0 0 4.65186 3.80981 15.3226
178 2 8.64 -94.4721 -18.1755 -102.333 -0 0 0 11.6095 3.59137 13.552
187 2 8.64 -32.5364 -106.084 -140.689 -0 0 0 4.25541 12.824 17.0377
193 2 8.64 -120.647 -60.5249 -108.935 -0 0 0 14.7802 8.00276 14.154
208 2 8.64 -63.2648 -130.7 -57.1229 -0 0 0 8.05633 16.6233 8.76047
215 2 8.64 -135.777 -9.18036 -51.6916 -0 0 0 16.4112 0.498923 5.86012
230 2 8.64 -95.3744 -59.1127 -46.7183 -0 0 0 12.8276 7.42525 6.24277
237 2 8.64 -111.968 -17.3281 -27.093 -0 0 0 14.0569 2.51732 3.04257
253 2 8.64 -35.0358 -145.59 -21.1043 -0 0 0 4.97118 17.3533 2.46551
255 2 8.64 -36.219 -41.2749 -52.4471 -0 0 0 4.97349 3.62591 5.14318
256 2 8.64 -26.5344 -91.2198 -76.0842 -0 0 0 3.94996 13.0232 9.78727
257 2 8.64 -28.2403 -143.112 -1.85398 -0 0 0 3.01415 17.9287 1.35418
265 2 8.64 -61.4354 -117.366 -66.9246 -0 0 0 8.0923 14.7828 9.06981
276 2 8.64 -130.808 -38.6693 -47.0827 -0 0 0 16.326 4.64365 5.56514
288 2 8.64 -116.136 -21.5988 -40.0589 -0 0 0 14.6098 2.68468 4.5429
296 2 8.64 -32.3638 -71.7317 -88.7576 -0 0 0 3.61089 10.0522 12.347
305 2 8.64 -8.08988 -91.3879 -49.1989 -0 0 0 0.897079 12.701 6.38842
307 2 8.64 -113.416 -114.6 -65.0784 -0 0 0 14.1678 14.36 8.28438
315 2 8.64 -4.17176 -105.115 -102.898 -0 0 0 0.139915 13.6413 13.5423
321 2 8.64 -49.2322 -109.612 -22.1951 -0 0 0 5.97503 13.4407 1.88732
323 2 8.64 -57.7794 -30.5828 -129.39 -0 0 0 6.75948 3.63688 16.2139
328 2 8.64 -92.2728 -66.0876 -36.9097 -0 0 0 12.4196 8.25092 3.44164
340 2 8.64 -103.327 -56.3689 -80.0194 -0 0 0 12.5876 7.45499 10.8613
352 2 8.64 -73.7179 -6.27836 -60.9547 -0 0 0 9.66979 0.144306 7.57574
360 2 8.64 -168.879 -12.7023 -65.5243 -0 0 0 21.1907 0.515365 8.12529
364 2 8.64 -147.307 -15.0798 -18.4596 -0 0 0 17.8538 2.49508 2.37103
366 2 8.64 -18.0868 -62.6022 -165.704 -0 0 0 2.71718 7.73233 20.3804
378 2 8.64 -20.2136 -12.905 -83.0431 -0 0 0 1.93633 2.67013 10.433
381 2 8.64 -50.7244 -71.7268 -142.471 -0 0 0 5.59178 9.21858 18.1451
394 2 8.64 -76.1598 -38.9287 -29.7822 -0 0 0 8.94839 5.18498 2.16629
396 2 8.64 -36.7978 -76.9766 -72.7238 -0 0 0 5.97615 10.7698 8.80998
410 2 8.64 -128.981 -65.3811 -69.8806 -0 0 0 15.9016 9.32384 9.97061
413 2 8.64 -30.2474 -53.3192 -4.13879 -0 0 0 3.58082 5.72751 -0.396393
431 2 8.64 -12.5857 -0.712385 -4.7239 -0 0 0 1.8735 -0.265524 1.01974
445 2 8.64 -60.2236 -79.9198 -123.684 -0 0 0 6.09972 9.86059 16.0575
449 2 8.64 -31.2182 -45.0432 -107.761 -0 0 0 3.68459 4.92904 13.5944
450 2 8.64 -43.9951 -176.764 -10.4025 -0 0 0 5.40436 21.935 1.36608
476 3 9.6 -9.81403 -1.30137 -71.7939 -0 0 0 2.07967 0.1601 12.3978
480 3 9.6 -30.7568 -4.3274 -127.831 -0 0 0 5.67658 0.641487 21.1179
485 3 9.6 -134.673 -23.341 -56.2311 -0 0 0 22.462 3.04622 7.69144
509 3 9.6 -89.7565 -152.282 -18.4293 -0 0 0 16.1255 25.5297 3.42977
514 3 9.6 -23.7024 -73.55 -78.6004 -0 0 0 2.91735 14.1855 15.435
518 3 9.6 -138.324 -54.1484 -39.1345 -0 0 0 22.7919 8.07047 7.03933
519 3 9.6 -79.6488 -93.828 -4.36725 -0 0 0 13.409 16.198 0.538091
521 3 9.6 -145.341 -54.6568 -96.9872 -0 0 0 24.2373 10.4173 16.5618
529 3 9.6 -26.3397 -110.058 -66.3706 -0 0 0 3.19874 19.3889 14.4149
530 3 9.6 -146.246 -46.8995 -63.9267 -0 0 0 25.5505 9.36283 11.6095
552 3 9.6 -99.6219 -37.9978 -87.1452 -0 0 0 17.1585 6.67005 17.2627
554 3 9.6 -51.4024 -34.7191 -49.3462 -0 0 0 8.44134 6.23067 8.82748
561 3 9.6 -54.9162 -57.4316 -92.5595 -0 0 0 9.83837 9.61812 16.5941
564 3 9.6 -75.9941 -140.93 -41.959 -0 0 0 13.9843 24.3075 7.35817
573 3 9.6 -67.5574 -2.65548 -104.61 -0 0 0 11.2288 -0.756277 19.4106
609 3 9.6 -102.96 -52.2375 -65.9344 -0 0 0 17.0166 9.22479 11.4737
626 3 9.6 -163.959 -28.0055 -35.9523 -0 0 0 28.0217 4.57304 5.79162
627 3 9.6 -54.8403 -87.8527 -78.3607 -0 0 0 8.86381 16.2158 12.3116
639 3 9.6 -46.8535 -7.37665 -59.2223 -0 0 0 8.02407 0.601953 9.67172
660 3 9.6 -148.733 -11.3655 -105.584 -0 0 0 25.1097 0.661805 18.6092
669 3 9.6 -39.8027 -52.8872 -154.52 -0 0 0 6.14287 10.6142 26.1538
689 3 9.6 -170.425 -29.1148 -12.1263 -0 0 0 27.3817 5.47631 1.89826
697 3 9.6 -149.309 -6.11883 -30.4854 -0 0 0 25.5744 1.39203 5.44173
722 3 9.6 -40.9205 -175.321 -35.322 -0 0 0 7.55885 29.6908 6.86086
724 3 9.6 -45.5532 -87.1283 -130.442 -0 0 0 6.4348 15.1753 23.3999
726 3 9.6 -165.099 -41.4059 -75.1783 -0 0 0 26.8356 7.65799 13.4385
731 3 9.6 -58.9266 -14.0534 -49.6755 -0 0 0 9.80735 0.905649 8.84774
732 3 9.6 -3.3397 -38.1622 -8.46205 -0 0 0 2.03744 5.78833 0.150183
738 3 9.6 -79.0093 -46.392 -145.161 -0 0 0 12.6158 9.63428 25.5024
742 3 9.6 -130.645 -94.8791 -19.7802 -0 0 0 23.3126 16.5063 4.74292
758 3 9.6 -1.67618 -130.65 -101.185 -0 0 0 -0.421395 20.1058 17.212
763 3 9.6 -65.6625 -137.289 -18.5969 -0 0 0 12.2813 23.042 3.24825
770 3 9.6 -74.7344 -1.66323 -90.8889 -0 0 0 12.41 0.074653 15.5628
773 3 9.6 -33.3791 -99.0346 -114.607 -0 0 0 5.66597 17.67 21.1035
781 3 9.6 -22.3488 -137.976 -22.8489 -0 0 0 4.00302 22.5416 3.7429
784 3 9.6 -154.586 -93.6368 -19.7088 -0 0 0 25.6619 17.328 4.06584
787 3 9.6 -49.944 -97.8625 -57.8247 -0 0 0 9.39976 16.2508 10.754
788 3 9.6 -94.0997 -42.4443 -29.6759 -0 0 0 17.4966 5.87112 3.62328
827 3 9.6 -162.604 -23.4761 -67.3332 -0 0 0 27.626 2.96105 11.7769
828 3 9.6 -20.283 -87.8604 -15.3727 -0 0 0 2.6097 14.9058 1.96492
829 3 9.6 -25.216 -90.3401 -137.66 -0 0 0 4.54392 15.9364 24.3009
846 3 9.6 -169.863 -43.0878 -51.9708 -0 0 0 28.5649 6.70004 8.35682
863 3 9.6 -47.981 -35.4421 -22.9916 -0 0 0 7.9321 5.62359 4.13995
896 3 9.6 -4.81679 -43.3005 -164.835 -0 0 0 1.90098 10.6295 27.9818
901 3 9.6 -75.8677 -137.864 -77.0412 -0 0 0 12.8604 23.7691 13.0241
903 3 9.6 -62.7509 -32.5404 -32.1903 -0 0 0 10.4651 5.35975 4.46942
906 3 9.6 -76.8958 -169.703 -21.5197 -0 0 0 13.908 27.9954 4.69026
916 3 9.6 -119.064 -19.741 -65.1389 -0 0 0 18.6538 3.09121 11.0301
925 3 9.6 -76.8867 -50.3158 -56.7318 -0 0 0 13.5076 8.65406 10.067
930 3 9.6 -78.1526 -99.9563 -112.392 -0 0 0 15.0009 17.5837 19.3275
933 3 9.6 -123.917 -99.5729 -84.3879 -0 0 0 20.812 17.6243 14.4144
936 3 9.6 -54.2997 -51.5116 -162.174 -0 0 0 9.51782 8.60374 28.2539
968 3 9.6 -61.6427 -133.478 -95.8809 -0 0 0 11.3455 22.6344 15.6563
969 3 9.6 -45.4858 -86.3202 -106.886 -0 0 0 7.37489 15.8591 19.8389
972 3 9.6 -82.6963 -62.5722 -50.0076 -0 0 0 14.253 11.2068 9.65093
989 3 9.6 -149.669 -50.0317 -84.2434 -0 0 0 25.2889 8.43772 14.7144
992 3 9.6 -111.952 -11.6157 -45.7024 -0 0 0 19.3179 0.785215 7.91202
1007 3 9.6 -101.423 -53.1628 -137.424 -0 0 0 17.3574 10.2285 23.9652
1008 3 9.6 -94.0122 -50.8297 -37.9369 -0 0 0 17.2024 8.86653 6.24229
1017 3 9.6 -18.2052 -17.0385 -177.001 -0 0 0 2.04837 2.81885 30.5917
1018 3 9.6 -79.6434 -46.3727 -132.858 -0 0 0 14.0031 9.1579 21.9849
1019 3 9.6 -159.902 -14.7539 -48.7093 -0 0 0 27.5964 1.07718 8.16469
1023 3 9.6 -79.9745 -66.9232 -129.504 -0 0 0 15.2028 10.5243 21.9328
1028 3 9.6 -41.4393 -131.384 -62.4984 -0 0 0 6.90028 23.1308 11.0343
1065 3 9.6 -97.4745 -102.297 -53.6981 -0 0 0 17.838 18.3631 9.28162
1077 3 9.6 -18.8042 -97.6091 -88.972 -0 0 0 2.45502 17.8229 14.8584
1085 3 9.6 -26.9435 -28.9291 -105.636 -0 0 0 4.45536 5.02138 18.0647
1087 3 9.6 -94.6408 -57.7684 -100.219 -0 0 0 16.7963 10.0035 18.4895
1109 3 9.6 -28.6265 -159.487 -69.9735 -0 0 0 5.44072 27.7847 10.9772
1121 3 9.6 -87.438 -10.1654 -127.464 -0 0 0 14.6599 2.02598 20.8958
1132 3 9.6 -1.72207 -70.0979 -66.3332 -0 0 0 -1.0158 11.9636 12.7432
1139 3 9.6 -135.769 -125.321 -2.27473 -0 0 0 23.5132 20.3813 0.838238
1162 3 9.6 -64.868 -152.111 -21.9173 -0 0 0 11.8743 25.4115 5.63746
1170 3 9.6 -77.657 -8.68936 -139.213 -0 0 0 12.3691 1.81944 23.4785
1210 3 9.6 -1.42417 -79.8023 -119.13 -0 0 0 -0.288466 13.0215 19.4242
1215 3 9.6 -29.518 -14.2062 -69.739 -0 0 0 4.56166 2.11072 11.6075
1218 3 9.6 -39.4107 -23.5485 -156.012 -0 0 0 7.74384 4.64802 26.3969
1222 3 9.6 -117.858 -40.2825 -129.813 -0 0 0 21.388 7.14778 21.7986
1227 3 9.6 -16.2225 -2.17632 -27.9187 -0 0 0 2.98186 0.150083 3.29579
1228 3 9.6 -78.0671 -78.293 -95.648 -0 0 0 14.1893 13.4684 17.0981
1248 3 9.6 -45.2707 -152.875 -90.5197 -0 0 0 8.10813 26.5325 16.2081
1249 3 9.6 -61.6971 -46.9362 -132.945 -0 0 0 9.99361 8.51743 22.6571
1259 3 9.6 -75.5359 -30.5115 -166.93 -0 0 0 12.4405 7.16778 29.3388
1296 3 9.6 -67.3644 -21.7955 -51.9075 -0 0 0 12.0813 3.4768 8.88035
1299 3 9.6 -20.5608 -71.9378 -11.4261 -0 0 0 3.44625 12.6281 1.61605
1303 3 9.6 -70.8831 -115.465 -84.3853 -0 0 0 13.0413 20.649 13.464
1332 3 9.6 -25.3238 -27.436 -176.907 -0 0 0 4.25641 8.22488 29.9614
1336 3 9.6 -16.1447 -0.294992 -165.936 -0 0 0 2.88784 -1.55453 29.208
1337 3 9.6 -160.25 -60.9303 -61.6089 -0 0 0 26.8449 11.3729 11.3987
1353 3 9.6 -30.1424 -38.8138 -32.723 -0 0 0 5.0154 6.59006 5.97943
1354 3 9.6 -1.54538 -92.8138 -114.266 -0 0 0 -0.536829 16.641 19.6525
1355 3 9.6 -62.1544 -105.17 -58.1479 -0 0 0 10.7066 18.0055 11.492
1370 3 9.6 -5.51731 -23.2329 -117.866 -0 0 0 0.723848 4.67355 20.1027
1375 3 9.6 -50.6111 -36.6901 -154.161 -0 0 0 8.97903 7.5232 26.2562
1378 3 9.6 -41.9908 -18.0183 -177.857 -0 0 0 9.7549 3.01987 29.3927
1383 3 9.6 -49.0634 -59.7199 -16.39 -0 0 0 8.52388 10.199 2.48519
1391 3 9.6 -7.16885 -83.2435 -128.519 -0 0 0 1.99995 15.0255 22.7609
1392 3 9.6 -39.3085 -80.6315 -96.5686 -0 0 0 6.31934 14.4567 18.2192
1412 3 9.6 -38.6891 -105.414 -97.4066 -0 0 0 6.74611 19.5586 17.1138
1422 3 9.6 -21.0027 -22.1386 -65.1307 -0 0 0 2.64519 3.90317 11.1537
1424 3 9.6 -48.3644 -163.821 -21.2524 -0 0 0 7.79321 28.0155 4.12177
1435 3 9.6 -4.30679 -163.359 -16.1677 -0 0 0 1.72481 26.141 2.76319
1444 3 9.6 -65.153 -65.7128 -37.5176 -0 0 0 10.3829 12.017 5.89011
1450 3 9.6 -93.2959 -30.1098 -123.333 -0 0 0 15.0329 5.13674 20.3666
1455 3 9.6 -76.4718 -26.9927 -115.602 -0 0 0 13.6999 4.09782 20.3873
1458 3 9.6 -37.3344 -47.7534 -21.3281 -0 0 0 5.59406 8.36017 3.88877
1460 3 9.6 -149.951 -8.68907 -78.0179 -0 0 0 26.3612 1.52806 13.7469
1469 3 9.6 -60.8597 -98.9301 -18.4669 -0 0 0 10.1964 16.6956 2.39305
1470 3 9.6 -118.216 -66.0498 -88.706 -0 0 0 20.6199 12.339 16.2823
1475 3 9.6 -57.3852 -134.623 -33.2477 -0 0 0 9.76821 23.2239 6.10202
1477 3 9.6 -83.6712 -24.663 -56.263 -0 0 0 14.447 3.69796 10.2444
1487 3 9.6 -42.0783 -79.215 -160.446 -0 0 0 6.86505 13.8136 26.8874
1488 3 9.6 -114.775 -31.0113 -77.8239 -0 0 0 20.0392 5.30687 13.0842
1490 3 9.6 -103.531 -86.431 -30.6519 -0 0 0 18.8701 15.6248 5.66087
1500 3 9.6 -21.6279 -118.857 -94.2459 -0 0 0 4.01681 19.7726 16.1925
1518 3 9.6 -3.05552 -12.7585 -172.236 -0 0 0 -0.597874 1.11461 30.3371
1519 3 9.6 -24.1785 -136.563 -75.2704 -0 0 0 3.49743 22.5188 12.6186
1524 3 9.6 -148.399 -69.8615 -56.838 -0 0 0 25.9978 13.1239 10.8742
1526 3 9.6 -52.3281 -90.9309 -25.3321 -0 0 0 9.22379 15.4826 4.892
1532 3 9.6 -17.4972 -76.2544 -53.217 -0 0 0 2.94089 13.7712 8.17807
1536 3 9.6 -3.56588 -34.7808 -156.367 -0 0 0 1.52715 7.98791 26.0356
1545 3 9.6 -71.2545 -58.7998 -159.265 -0 0 0 11.8291 10.0272 26.4196
1547 3 9.6 -72.9806 -39.8936 -61.3028 -0 0 0 12.4435 6.21652 10.4302
1562 3 9.6 -79.5567 -125.901 -16.5881 -0 0 0 14.0069 21.7583 2.66597
1566 3 9.6 -19.1414 -130.234 -108.527 -0 0 0 2.95467 20.9586 19.295
1567 3 9.6 -93.1587 -95.0868 -97.8743 -0 0 0 16.6101 15.8184 17.4127
1568 3 9.6 -31.216 -66.747 -24.7901 -0 0 0 6.33372 10.9554 4.98842
1575 3 9.6 -30.012 -95.5651 -7.47069 -0 0 0 4.92223 16.7224 0.354331
1580 3 9.6 -119.025 -102.976 -33.0896 -0 0 0 20.987 17.9559 7.18611
1582 3 9.6 -23.9649 -157.446 -81.1948 -0 0 0 3.54838 26.4314 14.0909
1584 3 9.6 -65.061 -149.188 -48.7026 -0 0 0 11.1298 25.6389 9.04211
1588 3 9.6 -40.0965 -29.8924 -136.379 -0 0 0 8.00368 6.22926 22.6515
1593 3 9.6 -70.4314 -84.8428 -131.716 -0 0 0 11.9807 16.2218 23.7341
1604 3 9.6 -83.5987 -150.008 -0.405723 -0 0 0 15.5666 25.6541 0.237829
1610 3 9.6 -60.0413 -53.9396 -47.7151 -0 0 0 8.78926 9.27043 8.34684
1611 3 9.6 -58.8143 -0.550137 -143.557 -0 0 0 11.7436 -0.443661 24.3762
1628 3 9.6 -43.4801 -67.5952 -40.0837 -0 0 0 7.98779 11.3802 6.85089
1644 3 9.6 -53.1549 -62.286 -156.647 -0 0 0 8.72661 11.9131 26.2927
1645 3 9.6 -41.19 -97.9617 -5.15936 -0 0 0 8.35919 17.7412 -0.149417
1655 3 9.6 -78.6757 -78.1207 -76.3695 -0 0 0 13.0036 14.1853 13.1359
1670 3 9.6 -88.8526 -122.227 -49.3764 -0 0 0 15.6796 21.6554 9.58892
1672 3 9.6 -63.8862 -88.4996 -95.4911 -0 0 0 11.2374 14.3881 17.1108
1674 3 9.6 -145.9 -3.06861 -14.4497 -0 0 0 24.2892 0.0571987 2.18118
1679 3 9.6 -125.482 -47.2189 -90.421 -0 0 0 21.8642 8.03898 16.6729
1680 3 9.6 -90.7892 -31.2891 -44.3267 -0 0 0 16.7396 5.30953 7.31977
1685 3 9.6 -91.1399 -13.7151 -63.5906 -0 0 0 16.1255 1.48439 11.0238
1688 3 9.6 -11.1148 -77.8603 -35.0081 -0 0 0 2.90638 14.4444 5.94228
1690 3 9.6 -58.4709 -116.058 -45.686 -0 0 0 11.1578 19.9987 9.29325
1697 3 9.6 -117.296 -106.925 -5.52207 -0 0 0 20.5745 19.0325 2.27002
1704 3 9.6 -113.589 -34.4307 -51.637 -0 0 0 19.3658 4.71396 8.79338
1709 3 9.6 -68.0106 -81.053 -51.1956 -0 0 0 10.9684 14.7478 9.48452
1715 3 9.6 -139.566 -104.935 -17.4536 -0 0 0 24.8461 18.9837 3.38971
1722 3 9.6 -125.193 -12.6318 -16.3972 -0 0 0 21.139 2.61392 2.75479
1723 3 9.6 -27.2746 -121.826 -77.0828 -0 0 0 4.47288 20.1832 14.2303
1736 3 9.6 -86.4346 -6.85608 -104.978 -0 0 0 13.406 1.3625 19.6656
1745 3 9.6 -22.9297 -4.21671 -106.422 -0 0 0 4.46437 1.29375 17.8155
1751 3 9.6 -38.643 -83.5051 -51.9194 -0 0 0 8.19039 15.1914 9.3872
1761 3 9.6 -89.6534 -116.729 -107.307 -0 0 0 14.5891 19.8474 19.7186
1762 3 9.6 -1.91876 -175.511 -47.8713 -0 0 0 0.350509 29.2445 7.8759
1775 3 9.6 -25.1229 -60.7166 -17.0371 -0 0 0 4.41512 8.80477 1.89043
1776 3 9.6 -105.624 -64.4964 -14.2821 -0 0 0 18.2042 10.8529 3.11499
1779 3 9.6 -72.8661 -78.6289 -26.1142 -0 0 0 11.1265 13.8685 3.83363
1782 3 9.6 -154.647 -29.4895 -49.7846 -0 0 0 26.6048 4.98063 8.21283
1785 3 9.6 -65.1543 -48.8728 -2.70819 -0 0 0 10.9726 7.64612 0.60519
1786 3 9.6 -112.516 -79.838 -77.9492 -0 0 0 19.8493 14.9905 14.158
1816 3 9.6 -57.3357 -135.471 -106.645 -0 0 0 9.04842 23.1769 19.2476
1826 3 9.6 -23.4181 -34.9702 -85.0173 -0 0 0 3.6162 5.32976 15.5962
1844 3 9.6 -128.921 -36.7411 -23.4607 -0 0 0 21.578 4.5738 3.41997
1849 3 9.6 -59.2755 -166.638 -29.9303 -0 0 0 10.7407 28.8664 6.57905
1876 3 9.6 -151.751 -29.4367 -99.5514 -0 0 0 25.834 5.04974 15.7737
1879 3 9.6 -72.5322 -24.2525 -71.2808 -0 0 0 13.0143 3.63658 12.2254
1883 3 9.6 -5.97677 -126.878 -29.3302 -0 0 0 1.13572 20.9626 5.72468
1903 3 9.6 -114.173 -106.971 -23.4278 -0 0 0 18.9756 19.3292 3.79575
1916 3 9.6 -69.6188 -2.72979 -167.006 -0 0 0 12.4074 -0.345359 28.0411
1917 3 9.6 -14.813 -162.506 -43.8917 -0 0 0 2.78635 26.9715 7.70972
1926 3 9.6 -109.689 -62.7172 -58.999 -0 0 0 19.0396 10.9142 10.3849
1929 3 9.6 -100.274 -68.6095 -81.9235 -0 0 0 17.7875 12.0679 15.3799
1939 3 9.6 -137.369 -98.6128 -51.2354 -0 0 0 23.8671 17.0604 9.07705
1940 3 9.6 -14.8457 -130.538 -91.7813 -0 0 0 2.40425 21.3658 15.8072
1944 3 9.6 -15.2518 -43.5644 -147.539 -0 0 0 2.79936 10.6207 24.553
1954 3 9.6 -135.932 -117.577 -38.9072 -0 0 0 23.1119 19.5292 6.70597
1955 3 9.6 -61.6374 -15.5149 -149.235 -0 0 0 10.828 2.38336 24.4564
1965 3 9.6 -38.7363 -57.6573 -167.484 -0 0 0 5.70697 10.5858 28.6863
1966 3 9.6 -47.0286 -50.0391 -81.1137 -0 0 0 8.9532 8.33413 13.9092
1969 3 9.6 -102.177 -22.3322 -150.742 -0 0 0 17.2667 3.95842 25.5801
1972 3 9.6 -71.4995 -143.372 -5.47652 -0 0 0 12.8135 24.1786 0.577322
1982 3 9.6 -110.339 -9.20941 -75.1923 -0 0 0 18.9099 1.06591 12.0649
1985 3 9.6 -66.3945 -163.469 -47.4209 -0 0 0 10.9934 28.1905 8.17618
1986 3 9.6 -90.752 -89.9718 -10.3408 -0 0 0 16.023 15.3102 1.33422
1987 3 9.6 -26.602 -37.9384 -164.125 -0 0 0 4.74306 9.17895 28.8631
1989 3 9.6 -159.43 -23.6851 -85.8315 -0 0 0 27.9557 3.64369 14.5328
1990 3 9.6 -98.803 -132.836 -10.9649 -0 0 0 16.4686 24.505 2.60561
1998 3 9.6 -128.962 -84.7301 -69.4419 -0 0 0 22.5973 15.1749 13.8919
2000 3 9.6 -46.3368 -125.708 -72.826 -0 0 0 7.94461 19.6807 13.5228
2005 3 9.6 -148.232 -74.7878 -45.1542 -0 0 0 25.4405 13.9228 7.40734
2006 3 9.6 -10.2541 -104.266 -67.3699 -0 0 0 1.61491 19.2427 12.2765
2011 3 9.6 -36.7425 -116.498 -61.2351 -0 0 0 7.09492 20.4754 12.357
2017 3 9.6 -99.034 -151.262 -33.9093 -0 0 0 16.9512 25.2304 5.36522
2021 3 9.6 -52.4097 -35.9314 -103.059 -0 0 0 8.27342 6.50705 18.1635
2031 3 9.6 -54.5005 -95.9153 -147.314 -0 0 0 7.6371 16.6532 25.0617
2036 3 9.6 -48.1907 -44.0197 -91.5866 -0 0 0 7.60995 6.91106 16.2636
2061 3 9.6 -42.5008 -89.5504 -15.8567 -0 0 0 8.50419 15.557 2.55778
2082 3 9.6 -170.476 -55.3095 -53.7441 -0 0 0 28.3638 10.2514 9.33025
2086 3 9.6 -12.9701 -14.6666 -55.9772 -0 0 0 1.73191 2.78429 10.8834
2104 3 9.6 -174.771 -22.4753 -22.6146 -0 0 0 28.9578 4.81198 6.72258
2107 3 9.6 -172.176 -55.997 -8.77633 -0 0 0 29.9137 10.4669 0.640076
2109 3 9.6 -20.8272 -53.3692 -124.098 -0 0 0 2.87348 9.76041 22.7722
2120 3 9.6 -5.82636 -11.3974 -124.839 -0 0 0 0.858242 2.2293 22.0126
2155 3 9.6 -46.5625 -111.51 -120.577 -0 0 0 6.39332 20.2199 21.0919
2160 3 9.6 -71.0141 -29.9895 -154.939 -0 0 0 11.4975 6.98595 25.5995
2165 3 9.6 -37.7123 -22.5046 -71.5476 -0 0 0 7.25014 4.60235 12.7906
2171 3 9.6 -68.3437 -17.5775 -127.375 -0 0 0 11.4104 2.47966 21.4311
2181 3 9.6 -32.7851 -31.5616 -13.7643 -0 0 0 5.23807 5.44307 0.937412
2190 3 9.6 -170.554 -29.3627 -54.1706 -0 0 0 29.1781 3.89641 8.68737
2194 3 9.6 -104.644 -48.3236 -22.0866 -0 0 0 18.2664 8.12147 3.37716
2200 3 9.6 -69.4352 -129.966 -41.9336 -0 0 0 12.2597 21.9388 7.04574
2210 3 9.6 -131.531 -29.4836 -107.902 -0 0 0 21.9216 6.20098 19.69
2211 3 9.6 -148.545 -20.8341 -3.55055 -0 0 0 24.0813 3.27002 1.2545
2223 3 9.6 -106.865 -132.786 -31.4562 -0 0 0 19.1519 23.5611 5.26944
2233 3 9.6 -81.9503 -60.7895 -64.189 -0 0 0 14.0613 11.5706 12.6935
2235 3 9.6 -108.848 -31.6707 -127.027 -0 0 0 19.1533 5.78664 20.6979
2236 3 9.6 -94.0613 -39.9476 -60.0697 -0 0 0 16.5575 6.32639 10.2192
2240 3 9.6 -48.3876 -7.80192 -23.2232 -0 0 0 7.57112 1.02235 2.79745
2243 3 9.6 -34.4305 -97.7704 -53.5345 -0 0 0 6.38826 15.7596 9.38625
2246 3 9.6 -9.02202 -40.7606 -68.0639 -0 0 0 0.43248 6.20642 12.0735
2261 3 9.6 -47.7444 -44.4568 -15.7526 -0 0 0 8.35917 7.82591 1.65289
2263 3 9.6 -53.6131 -25.7487 -110.42 -0 0 0 9.34111 3.68414 21.0349
2264 3 9.6 -145.543 -87.815 -7.59319 -0 0 0 24.8769 16.3789 1.27419
2288 3 9.6 -108.413 -124.682 -54.5986 -0 0 0 19.3408 20.9058 9.33158
2298 3 9.6 -36.1564 -167.257 -50.9914 -0 0 0 6.88185 28.5519 9.56874
2306 3 9.6 -21.8374 -104.449 -99.1923 -0 0 0 3.38618 19.4031 17.7867
2340 3 9.6 -42.977 -111.296 -42.591 -0 0 0 7.58058 17.4416 8.28173
2344 3 9.6 -62.0085 -86.8268 -147.211 -0 0 0 10.0709 14.6804 25.1681
2355 3 9.6 -150.166 -61.5509 -78.0936 -0 0 0 25.5633 12.066 13.6807
2358 3 9.6 -80.753 -108.014 -32.0331 -0 0 0 14.1736 19.5908 4.53518
2363 3 9.6 -53.9423 -25.5644 -84.9095 -0 0 0 8.11884 4.68697 14.3319
2377 3 9.6 -60.4063 -0.980192 -70.7217 -0 0 0 10.4999 -0.754388 12.0718
2391 3 9.6 -23.7917 -113.962 -111.006 -0 0 0 4.40782 19.6473 20.3379
2399 3 9.6 -15.0778 -169.673 -77.6821 -0 0 0 2.3427 28.4955 11.8805
2417 3 9.6 -84.9846 -32.7444 -85.154 -0 0 0 14.5008 5.61652 15.953
2430 3 9.6 -4.62272 -73.5081 -134.956 -0 0 0 0.471243 11.5352 24.0462
2450 3 9.6 -1.9138 -42.0502 -88.8357 -0 0 0 0.770927 7.13213 14.9902
2452 3 9.6 -9.59808 -184.689 -28.2621 -0 0 0 2.57322 30.8249 5.004
2471 3 9.6 -116.279 -29.341 -109.859 -0 0 0 18.9971 6.57364 19.839
2481 3 9.6 -134.982 -46.6721 -17.808 -0 0 0 23.1113 6.8886 2.15548
2486 3 9.6 -113.828 -92.483 -18.9211 -0 0 0 19.09 15.3037 3.52213
2491 3 9.6 -135.584 -12.109 -7.52336 -0 0 0 22.7616 2.07969 0.865005
2504 3 9.6 -103.55 -8.18248 -0.26113 -0 0 0 16.5739 0.311344 1.16752
2508 3 9.6 -63.46 -64.3367 -132.137 -0 0 0 9.26107 9.80421 23.153
2514 3 9.6 -123.686 -57.9065 -50.71 -0 0 0 21.3794 9.20369 8.98772
2521 3 9.6 -53.3267 -144.574 -90.1516 -0 0 0 10.9119 24.5398 15.5854
2525 3 9.6 -21.3114 -123.139 -31.5921 -0 0 0 2.59227 21.4671 4.95045
2526 3 9.6 -109.687 -94.0532 -5.17152 -0 0 0 18.0537 15.6345 1.23536
2532 3 9.6 -100.146 -105.342 -90.4803 -0 0 0 18.7491 17.6271 14.1038
2541 3 9.6 -32.1627 -154.877 -56.6087 -0 0 0 6.30919 26.5913 10.2265
2544 3 9.6 -171.117 -34.5065 -66.8291 -0 0 0 28.9212 5.43928 11.4426
2545 3 9.6 -157.946 -77.968 -31.3559 -0 0 0 26.4541 15.176 6.22097
2559 3 9.6 -25.3615 -3.81266 -185.938 -0 0 0 4.73158 -0.94164 30.9278
2562 3 9.6 -10.7234 -125.856 -16.7168 -0 0 0 1.75966 21.7536 2.3652
2585 3 9.6 -79.384 -46.0726 -101.347 -0 0 0 15.3599 7.70889 17.5078
2589 3 9.6 -87.023 -22.2518 -151.74 -0 0 0 15.2983 3.80636 24.9381
2591 3 9.6 -23.3484 -68.3884 -140.721 -0 0 0 4.04414 11.7525 23.8791
2597 3 9.6 -76.4442 -29.782 -39.0152 -0 0 0 12.8446 4.66434 7.35777
2599 3 9.6 -10.2112 -67.9993 -42.3902 -0 0 0 1.32897 10.3543 7.93107
2600 3 9.6 -52.4886 -146.714 -37.7975 -0 0 0 8.5238 25.5369 6.71641
2609 3 9.6 -15.698 -89.0521 -118.688 -0 0 0 3.75396 14.7426 20.6296
2614 3 9.6 -108.162 -93.769 -107.691 -0 0 0 18.5913 15.8694 17.7885
2622 3 9.6 -59.5497 -48.4254 -34.1139 -0 0 0 9.86813 9.14647 4.67341
2629 3 9.6 -16.8937 -65.2778 -61.3388 -0 0 0 1.01258 10.7567 10.0962
2641 3 9.6 -52.5306 -20.9102 -25.7592 -0 0 0 8.71972 3.85234 4.38144
2654 3 9.6 -43.8789 -54.3051 -124.99 -0 0 0 8.1114 10.2023 22.2126
2659 3 9.6 -31.8399 -10.142 -81.5826 -0 0 0 6.11349 2.21272 15.436
2675 3 9.6 -121.245 -39.1132 -2.94491 -0 0 0 20.4806 6.29566 1.04667
2676 3 9.6 -35.8322 -45.6755 -125.193 -0 0 0 5.11348 7.45682 22.3823
2709 3 9.6 -12.5416 -48.5638 -174.742 -0 0 0 2.73924 10.0505 29.5249
2711 3 9.6 -40.9557 -144.366 -72.0182 -0 0 0 7.18424 25.1792 11.5781
2723 3 9.6 -101.9 -74.7716 -33.8601 -0 0 0 18.6582 12.4819 5.22036
2730 3 9.6 -100.085 -3.22806 -58.5508 -0 0 0 17.6864 0.337455 9.55859
2735 3 9.6 -93.1687 -6.57046 -27.0263 -0 0 0 16.876 0.199875 2.7878
2742 3 9.6 -74.0434 -95.1392 -41.5907 -0 0 0 11.3715 16.0172 7.66561
2749 3 9.6 -144.964 -25.0835 -80.8887 -0 0 0 24.0807 4.86826 14.8378
2751 3 9.6 -145.522 -57.0703 -10.5422 -0 0 0 23.9984 8.5379 2.08066
2753 3 9.6 -77.9937 -106.11 -74.4506 -0 0 0 12.2178 19.469 12.1982
2757 3 9.6 -44.3904 -47.5591 -63.975 -0 0 0 9.45972 8.34293 10.7731
2764 3 9.6 -8.91864 -181.09 -9.43029 -0 0 0 2.72884 30.9735 1.09894
2769 3 9.6 -56.4478 -91.2766 -124.463 -0 0 0 8.58357 16.1596 21.6072
2775 3 9.6 -98.1646 -39.8707 -114.314 -0 0 0 16.5986 7.75325 18.7348
2779 3 9.6 -113.827 -100.387 -61.9398 -0 0 0 20.4422 17.6721 10.6136
2800 3 9.6 -156.21 -84.045 -49.9953 -0 0 0 26.3077 15.257 8.66165
2806 3 9.6 -15.4486 -105.563 -25.5344 -0 0 0 2.01124 18.7353 5.91979
2808 3 9.6 -10.3236 -142.218 -82.7907 -0 0 0 0.780414 24.4422 13.5792
2817 3 9.6 -32.5022 -66.344 -58.3979 -0 0 0 7.28706 12.2121 9.62259
2818 3 9.6 -111.931 -81.4341 -60.073 -0 0 0 18.7522 15.9128 11.5302
2819 3 9.6 -83.0231 -72.4484 -21.484 -0 0 0 14.9532 11.5207 2.36084
2844 3 9.6 -100.211 -8.56547 -116.109 -0 0 0 16.6542 1.24213 20.6382
2850 3 9.6 -60.4638 -64.5195 -107.306 -0 0 0 10.2662 10.3589 19.0902
2851 3 9.6 -48.1872 -22.1445 -12.3926 -0 0 0 8.25573 3.7987 0.217231
2854 3 9.6 -16.4356 -17.354 -143.449 -0 0 0 1.73324 2.53452 23.2688
2859 3 9.6 -54.7469 -131.216 -20.1114 -0 0 0 8.32 22.1606 3.28176
2866 3 9.6 -24.8534 -22.6159 -7.78849 -0 0 0 3.25271 4.0027 -0.476502
2869 3 9.6 -7.5481 -81.1862 -143.488 -0 0 0 1.87658 13.8541 25.5063
2875 3 9.6 -91.5028 -68.6299 -137.935 -0 0 0 16.0391 12.2662 24.0485
2876 3 9.6 -126.278 -85.9824 -58.1662 -0 0 0 21.9583 16.3802 9.6666
2883 3 9.6 -62.4887 -168.827 -15.2806 -0 0 0 10.7846 31.002 2.89196
2896 3 9.6 -57.1158 -14.8113 -16.774 -0 0 0 11.6009 1.57787 0.617866
2898 3 9.6 -2.16828 -14.6276 -148.963 -0 0 0 0.709771 2.75434 24.492
2901 3 9.6 -171.793 -75.2545 -4.74552 -0 0 0 28.9224 12.3112 0.2728
2902 3 9.6 -58.6565 -159.516 -61.5591 -0 0 0 9.72738 26.8619 11.1707
2914 3 9.6 -65.8863 -87.8823 -83.5044 -0 0 0 12.3144 15.5431 13.3957
2916 3 9.6 -2.41857 -90.6495 -80.9235 -0 0 0 0.407039 16.0615 15.3386
2924 3 9.6 -71.4437 -63.2064 -117.785 -0 0 0 13.181 10.2088 20.443
2926 3 9.6 -11.6248 -148.772 -48.0479 -0 0 0 1.57329 24.0173 9.25116
2929 3 9.6 -30.7757 -147.188 -32.2115 -0 0 0 5.52418 24.9372 6.64514
2935 3 9.6 -61.7274 -73.6234 -76.4865 -0 0 0 11.2504 13.0297 12.6336
2936 3 9.6 -11.8523 -77.4038 -90.4464 -0 0 0 1.21735 14.0224 16.8713
2963 3 9.6 -40.2 -21.0195 -106.212 -0 0 0 6.27664 3.56554 19.1631
2994 3 9.6 -114.837 -6.06355 -23.2767 -0 0 0 19.3191 0.933382 4.05161
2999 3 9.6 -35.7062 -12.8928 -49.3943 -0 0 0 6.99687 2.67346 8.83614
3005 3 9.6 -3.98777 -11.3186 -43.2732 -0 0 0 -0.727144 1.17261 7.94663
3019 3 9.6 -98.7565 -72.9909 -103.863 -0 0 0 16.3865 12.8094 19.2279
3025 3 9.6 -44.0051 -130.505 -102.666 -0 0 0 7.49789 20.5191 19.4511
3026 3 9.6 -132.996 -24.7322 -34.7627 -0 0 0 21.9379 3.61175 5.42567
3031 3 9.6 -128.785 -0.531749 -114.025 -0 0 0 22.7745 0.181603 21.3451
3056 3 9.6 -121.044 -90.1887 -31.2987 -0 0 0 20.7874 15.2371 6.3552
3057 3 9.6 -100.495 -123.622 -24.5541 -0 0 0 17.8605 20.931 4.09683
3061 3 9.6 -144.294 -44.1488 -107.954 -0 0 0 23.7242 8.28996 18.1187
3073 3 9.6 -54.0038 -110.467 -36.3784 -0 0 0 10.0599 17.5856 5.76143
3076 3 9.6 -139.552 -62.6118 -60.4691 -0 0 0 24.1818 10.8298 11.0172
3079 3 9.6 -32.4045 -73.1459 -48.9761 -0 0 0 6.2331 12.7645 7.38596
3082 3 9.6 -60.9668 -121.341 -85.4003 -0 0 0 9.9957 21.6502 14.0569
3104 3 9.6 -53.7806 -39.616 -38.864 -0 0 0 7.87203 6.87553 6.38351
3119 3 9.6 -89.2942 -45.4 -10.3196 -0 0 0 15.1013 6.9466 2.8491
3132 3 9.6 -85.6119 -150.832 -44.5471 -0 0 0 15.4038 25.9106 7.35472
3133 3 9.6 -55.5125 -4.73477 -83.928 -0 0 0 8.70825 -0.0136627 15.3692
3138 3 9.6 -53.4386 -143.404 -52.1745 -0 0 0 8.71318 24.9783 10.4264
3147 3 9.6 -105.024 -47.5213 -44.3791 -0 0 0 18.1118 7.45021 7.53574
3152 3 9.6 -63.3718 -31.2413 -61.706 -0 0 0 9.79864 5.3163 10.8225
3162 3 9.6 -51.7321 -101.406 -135.208 -0 0 0 7.44259 18.394 23.872
3169 3 9.6 -54.6958 -115.13 -105.128 -0 0 0 7.96905 20.2015 19.1249
3186 3 9.6 -132.309 -8.97811 -33.5018 -0 0 0 21.7812 1.559 5.42869
3192 3 9.6 -58.5361 -133.296 -4.35153 -0 0 0 11.0072 21.8829 0.600928
3207 3 9.6 -46.1832 -9.47025 -156.104 -0 0 0 8.46551 1.61293 27.4204
3220 3 9.6 -116.234 -76.7639 -99.4457 -0 0 0 20.1548 13.4803 17.316
3232 3 9.6 -8.13417 -14.4584 -7.08107 -0 0 0 1.59902 3.97148 0.603037
3235 3 9.6 -114.751 -130.941 -11.8657 -0 0 0 18.8077 22.9858 2.61567
3241 3 9.6 -161.899 -54.693 -28.9144 -0 0 0 26.0487 8.28822 4.48057
3257 3 9.6 -98.5936 -75.2824 -91.6839 -0 0 0 17.1689 13.8658 16.9834
3264 3 9.6 -80.1027 -134.423 -2.36604 -0 0 0 14.2745 22.4123 0.268102
3269 3 9.6 -95.2403 -110.378 -66.3281 -0 0 0 16.4066 20.4049 11.9933
3273 3 9.6 -12.118 -3.85693 -115.208 -0 0 0 1.66528 1.48272 19.4452
3294 3 9.6 -130.919 -29.0806 -66.0661 -0 0 0 20.5532 4.74275 12.2814
3302 3 9.6 -133.652 -49.5033 -112.3 -0 0 0 21.2092 9.25366 20.1187
3303 3 9.6 -22.3041 -50.4231 -50.81 -0 0 0 2.46749 7.97776 6.5799
3306 3 9.6 -70.3313 -21.0626 -87.9593 -0 0 0 12.6817 3.41532 15.3689
3324 3 9.6 -36.6319 -60.527 -87.359 -0 0 0 7.06346 9.61272 16.6391
3338 3 9.6 -78.8995 -158.826 -52.8631 -0 0 0 13.8316 27.0379 9.72803
3363 3 9.6 -8.53791 -41.5667 -40.3826 -0 0 0 2.01776 6.68865 6.59917
3366 3 9.6 -54.2965 -16.7043 -38.7527 -0 0 0 8.60732 2.53299 6.22572
3405 3 9.6 -69.583 -49.5538 -18.1049 -0 0 0 11.9921 8.03359 2.69644
3422 3 9.6 -83.273 -82.1701 -30.6847 -0 0 0 14.792 14.6159 4.56642
3427 3 9.6 -61.246 -16.0153 -79.1157 -0 0 0 10.1747 2.4105 14.0082
3429 3 9.6 -58.6838 -7.22946 -2.12674 -0 0 0 10.9085 0.899708 -0.502398
3433 3 9.6 -19.8221 -118.386 -144.537 -0 0 0 4.29225 18.8243 22.7398
3456 3 9.6 -101.3 -69.9052 -70.2284 -0 0 0 17.5167 13.1795 12.0724
3462 3 9.6 -5.05358 -120.175 -120.795 -0 0 0 1.52983 19.9045 20.0591
3467 3 9.6 -25.0914 -41.4245 -8.68189 -0 0 0 3.14057 6.48496 -0.108295
3469 3 9.6 -64.9726 -52.4601 -63.9155 -0 0 0 10.141 9.31908 12.4799
3486 3 9.6 -38.1117 -102.409 -65.8991 -0 0 0 7.63594 17.2998 13.6647
3487 3 9.6 -55.2631 -48.3391 -143.462 -0 0 0 8.9559 9.08848 24.9455
3493 3 9.6 -5.00358 -112.586 -92.8138 -0 0 0 0.36135 19.8091 15.9034
3495 3 9.6 -30.487 -143.69 -85.3186 -0 0 0 4.40425 23.3141 15.1637
3503 3 9.6 -30.4998 -56.0646 -111.166 -0 0 0 5.23176 10.3997 20.3129
3506 3 9.6 -106.548 -68.3973 -126.072 -0 0 0 18.3749 12.3473 21.0614
3523 3 9.6 -67.1646 -44.3746 -99.1273 -0 0 0 11.4298 8.71404 16.6977
3530 3 9.6 -121.516 -39.1502 -36.671 -0 0 0 20.5868 5.26791 5.32943
3552 3 9.6 -51.002 -125.051 -50.3998 -0 0 0 9.80778 22.2505 10.2623
3553 3 9.6 -181.312 -4.56081 -44.357 -0 0 0 29.3246 0.892156 8.12969