ITEM: TIMESTEP
18000
ITEM: NUMBER OF ATOMS
6100
ITEM: BOX BOUNDS ff ff ff
-1.0000000000000000e+03 1.0000000000000000e+03
-1.0000000000000000e+03 1.0000000000000000e+03
-1.0000000000000000e+03 1.0000000000000000e+03
ITEM: ATOMS id type diameter x y z vx vy vz fx fy fz
3 1 7.68 -173.268 -22.8632 -44.1148 0.00786573 0.000732157 0.0018443 15.6869 1.459 3.67656
10 1 7.68 -55.9149 -112.872 -92.6328 0.00215165 0.00534926 0.00424061 4.28436 10.6744 8.45699
20 1 7.68 -154.703 -37.2609 -89.3958 0.00683581 0.0018668 0.00393887 13.6352 3.7251 7.85541
25 1 7.68 -96.0903 -35.7774 -150.218 0.00457696 0.00154916 0.00668727 9.1367 3.08428 13.3363
30 1 7.68 -4.8807 -23.8178 -19.9507 0.000387042 0.00133503 0.000226888 0.782985 2.67366 0.438973
35 1 7.68 -108.733 -73.9332 -10.7809 0.00511282 0.00353402 0.000679318 10.2003 7.05231 1.35399
44 1 7.68 -149.436 -88.6132 -61.261 0.00637872 0.00408055 0.00285117 12.7192 8.13802 5.68486
57 1 7.68 -47.4728 -112.428 -3.81776 0.00221661 0.00475103 0.000268062 4.42419 9.46694 0.536208
62 1 7.68 -115.047 -26.7267 -6.63422 0.00514561 0.00110011 0.000566765 10.2609 2.19554 1.13533
67 1 7.68 -27.8978 -69.6941 -125.952 0.000886462 0.0031978 0.00588035 1.76011 6.37755 11.7365
72 1 7.68 -86.9435 -128.9 -81.5469 0.00380707 0.00585361 0.00350254 7.5947 11.674 6.97917
79 1 7.68 -9.90576 -129.252 -59.1027 0.000272094 0.00585074 0.0028081 0.538779 11.6672 5.60216
93 1 7.68 -162.475 -35.5304 -19.1576 0.00712106 0.00153053 0.00113459 14.2008 3.04709 2.26294
122 1 7.68 -73.947 -76.0416 -62.1351 0.00336582 0.00371238 0.00301729 6.71254 7.4099 6.02656
125 1 7.68 -56.6392 -20.0465 -165.884 0.00246043 0.00110161 0.00760837 4.90217 2.19495 15.1787
127 1 7.68 -78.9634 -31.8949 -13.1738 0.00355619 0.0010628 0.000185496 7.09514 2.11661 0.363465
149 1 7.68 -123.456 -113.071 -67.9253 0.00566471 0.00502856 0.003103 11.2956 10.0245 6.18752
150 1 7.68 -68.31 -105.093 -92.7163 0.00315069 0.00487958 0.00392691 6.28773 9.73808 7.82644
157 2 8.64 -61.3309 -74.6826 -17.6803 0.00260722 0.00358139 0.000632638 7.40138 10.175 1.79623
162 2 8.64 -13.6169 -107.214 -149.468 0.000882326 0.00445377 0.00656701 2.50374 12.6355 18.6352
166 2 8.64 -37.6423 -31.6145 -118.798 0.00167011 0.0013677 0.00550373 4.74039 3.88152 15.6364
178 2 8.64 -93.571 -17.8964 -101.281 0.0041684 0.00129249 0.00486836 11.8337 3.68641 13.8349
187 2 8.64 -32.2061 -105.089 -139.367 0.00152762 0.00460398 0.00611662 4.33509 13.0674 17.3599
193 2 8.64 -119.5 -59.9036 -107.836 0.00530696 0.00287402 0.00508288 15.0664 8.16252 14.4346
208 2 8.64 -62.6395 -129.41 -56.4425 0.0028919 0.00596919 0.00314872 8.20544 16.9489 8.95739
215 2 8.64 -134.503 -9.14171 -51.2368 0.00589294 0.000178366 0.00210265 16.7321 0.50195 5.96096
230 2 8.64 -94.3784 -58.5363 -46.2337 0.00460909 0.00266583 0.00224169 13.1037 7.56666 6.36509
237 2 8.64 -110.877 -17.1328 -26.8569 0.0050479 0.000903149 0.00109186 14.3346 2.55993 3.0964
253 2 8.64 -34.6499 -144.243 -20.9129 0.00178569 0.00623073 0.000884808 5.0738 17.6883 2.50937
255 2 8.64 -35.8324 -40.9941 -52.0485 0.00179043 0.00129555 0.00184124 5.10983 3.64137 5.19578
256 2 8.64 -26.2276 -90.2083 -75.3244 0.00142011 0.00468153 0.00351545 4.04221 13.322 9.98745
257 2 8.64 -28.0063 -141.72 -1.74858 0.00108182 0.0064391 0.000488927 3.06874 18.2898 1.40348
265 2 8.64 -60.8072 -116.218 -66.2204 0.00290621 0.00530869 0.00325891 8.25407 15.0758 9.26519
276 2 8.64 -129.54 -38.309 -46.6508 0.00586278 0.00166648 0.00199732 16.6487 4.72623 5.6653
288 2 8.64 -115.002 -21.3904 -39.7064 0.00524739 0.000963895 0.00162986 14.9065 2.73616 4.61969
296 2 8.64 -32.0835 -70.9511 -87.7988 0.00129655 0.00361318 0.00443762 3.68109 10.2799 12.6232
305 2 8.64 -8.02021 -90.4017 -48.703 0.000322495 0.00456392 0.00229459 0.917813 12.977 6.51871
307 2 8.64 -112.317 -113.486 -64.4353 0.00508763 0.00515644 0.00297521 14.4469 14.6411 8.45019
315 2 8.64 -4.16104 -104.056 -101.847 4.8924e-05 0.00489927 0.00486369 0.131424 13.9161 13.8148
321 2 8.64 -48.7684 -108.568 -22.0488 0.00214562 0.00482586 0.000675856 6.09272 13.6997 1.90848
323 2 8.64 -57.2548 -30.3005 -128.131 0.00242623 0.0013059 0.00582213 6.88341 3.70773 16.5311
328 2 8.64 -91.3083 -65.4471 -36.6427 0.00446356 0.00296362 0.00123356 12.696 8.41972 3.48958
340 2 8.64 -102.35 -55.7899 -79.1761 0.00451989 0.00267916 0.00390193 12.8331 7.61964 11.0893
352 2 8.64 -72.9672 -6.26727 -60.3666 0.00347309 5.07176e-05 0.00272019 9.86611 0.137744 7.72287
360 2 8.64 -167.234 -12.6624 -64.8936 0.00761015 0.00018391 0.0029175 21.6135 0.51565 8.283
364 2 8.64 -145.921 -14.8861 -18.2755 0.00641117 0.000896903 0.000851718 18.2047 2.55216 2.42018
366 2 8.64 -17.8759 -62.0022 -164.122 0.000975744 0.00277534 0.00731756 2.77083 7.87336 20.7734
378 2 8.64 -20.0635 -12.6976 -82.2332 0.00069373 0.000959854 0.00374683 1.96084 2.73137 10.6415
381 2 8.64 -50.2905 -71.0113 -141.063 0.00200663 0.00330961 0.00651647 5.69028 9.39365 18.5076
394 2 8.64 -75.4654 -38.5261 -29.6144 0.00321151 0.00186377 0.000774115 9.1089 5.30304 2.17659
396 2 8.64 -36.3334 -76.1401 -72.0398 0.00215079 0.00387205 0.00316429 6.13469 11.0217 8.9891
410 2 8.64 -127.747 -64.6572 -69.1065 0.00571106 0.00334874 0.00358134 16.2219 9.51233 10.1748
413 2 8.64 -29.9695 -52.8748 -4.1697 0.00128553 0.00205519 -0.000143658 3.64852 5.82714 -0.4154
431 2 8.64 -12.4402 -0.733058 -4.64457 0.000673735 -9.5922e-05 0.000367852 1.91862 -0.275644 1.05419
445 2 8.64 -59.7504 -79.1541 -122.437 0.00218794 0.00354329 0.00576657 6.19894 10.0752 16.3767
449 2 8.64 -30.9322 -44.6609 -106.705 0.00132249 0.00176738 0.00488243 3.75176 5.00365 13.8682
450 2 8.64 -43.5757 -175.061 -10.2965 0.00193987 0.00787779 0.000490544 5.50379 22.3754 1.39289
476 3 9.6 -9.69633 -1.29234 -71.0923 0.000544512 4.16539e-05 0.00324518 2.12171 0.160253 12.6381
480 3 9.6 -30.4355 -4.2911 -126.636 0.00148625 0.00016784 0.00552627 5.79096 0.653074 21.5102
485 3 9.6 -133.402 -23.169 -55.7963 0.00588008 0.00079413 0.00200923 22.9037 3.06703 7.7929
509 3 9.6 -88.8439 -150.838 -18.2352 0.00422235 0.00668285 0.000898029 16.4546 26.0284 3.4994
514 3 9.6 -23.5375 -72.7468 -77.7265 0.000761456 0.00371777 0.00404517 2.94836 14.515 15.7928
518 3 9.6 -137.035 -53.6918 -38.7361 0.0059654 0.00211157 0.00184332 23.2278 8.21619 7.18439
519 3 9.6 -78.8901 -92.9113 -4.33686 0.00350975 0.00424045 0.000140277 13.6675 16.5183 0.541823
521 3 9.6 -143.97 -54.0673 -96.05 0.00634468 0.0027275 0.00433569 24.7122 10.6276 16.8892
529 3 9.6 -26.1592 -108.961 -65.554 0.000833442 0.00507748 0.00378182 3.21544 19.792 14.7963
530 3 9.6 -144.8 -46.3693 -63.2698 0.00669038 0.00245433 0.00303848 26.074 9.58619 11.83
552 3 9.6 -98.6507 -37.6203 -86.1681 0.00449346 0.00174669 0.00452134 17.516 6.80832 17.6292
554 3 9.6 -50.925 -34.3665 -48.8467 0.00220768 0.00163188 0.00231052 8.58291 6.36287 8.9972
561 3 9.6 -54.3594 -56.8874 -91.6203 0.00257574 0.00251684 0.00434544 10.0348 9.79564 16.9373
564 3 9.6 -75.2025 -139.554 -41.5427 0.00366278 0.00636423 0.00192571 14.2826 24.7975 7.49693
573 3 9.6 -66.9219 -2.6985 -103.512 0.00293984 -0.000200104 0.00508466 11.4539 -0.796096 19.8317
609 3 9.6 -101.997 -51.7154 -65.285 0.00445363 0.00241524 0.00300412 17.3398 9.41067 11.7056
626 3 9.6 -162.373 -27.7468 -35.6247 0.00733639 0.00119629 0.00151471 28.5831 4.65313 5.88893
627 3 9.6 -54.3389 -86.9349 -77.6642 0.00231877 0.00424596 0.00322151 9.01944 16.5462 12.5372
639 3 9.6 -46.3994 -7.34258 -58.6751 0.00210095 0.00015765 0.00253138 8.18672 0.61462 9.8563
660 3 9.6 -147.312 -11.3281 -104.531 0.00657375 0.000172536 0.00487194 25.6099 0.666466 18.9802
669 3 9.6 -39.4551 -52.2865 -153.041 0.00160738 0.00277863 0.00684559 6.25546 10.8234 26.6571
689 3 9.6 -168.876 -28.8045 -12.0191 0.00716521 0.00143791 0.000495712 27.8877 5.63487 1.92142
697 3 9.6 -147.861 -6.03994 -30.1775 0.00669522 0.000365511 0.00142484 26.0816 1.43238 5.55238
722 3 9.6 -40.4928 -173.641 -34.9336 0.00197879 0.00777317 0.0017968 7.70791 30.2832 7.00469
724 3 9.6 -45.1894 -86.2695 -129.118 0.0016818 0.00397259 0.00612583 6.52979 15.4737 23.8627
726 3 9.6 -163.58 -40.9725 -74.4176 0.00702492 0.00200531 0.0035196 27.3623 7.81563 13.7224
731 3 9.6 -58.3718 -14.0023 -49.1747 0.00256602 0.00023563 0.00231681 9.98442 0.906435 9.0294
732 3 9.6 -3.22412 -37.8347 -8.45369 0.000535923 0.00151409 3.80221e-05 2.10758 5.88836 0.138029
738 3 9.6 -78.2954 -45.8467 -143.718 0.00330246 0.00252271 0.00667744 12.8629 9.83131 26.0207
742 3 9.6 -129.325 -93.945 -19.5116 0.00610392 0.00432115 0.00124406 23.7846 16.8325 4.86519
758 3 9.6 -1.7001 -129.513 -100.211 -0.000111057 0.00526037 0.00450613 -0.438391 20.4671 17.555
763 3 9.6 -64.9674 -135.985 -18.4131 0.00321638 0.00603201 0.000849846 12.5389 23.4963 3.30649
770 3 9.6 -74.0322 -1.659 -90.0082 0.00324798 1.95727e-05 0.00407506 12.6457 0.0765137 15.8812
773 3 9.6 -33.0586 -98.0346 -113.412 0.00148264 0.00462642 0.00552582 5.7704 18.0266 21.5344
781 3 9.6 -22.1222 -136.701 -22.637 0.00104789 0.00589824 0.000980686 4.08163 22.9533 3.82675
784 3 9.6 -153.134 -92.656 -19.4787 0.00671761 0.00453778 0.00106446 26.1647 17.6882 4.14698
787 3 9.6 -49.412 -96.943 -57.216 0.00246226 0.00425344 0.00281686 9.60335 16.5623 10.9853
788 3 9.6 -93.1092 -42.1124 -29.4714 0.00458373 0.00153427 0.000943945 17.8817 5.95509 3.64104
827 3 9.6 -161.041 -23.3086 -66.6668 0.00723205 0.000775143 0.00308336 28.1708 3.01929 12.0133
828 3 9.6 -20.1354 -87.0169 -15.2616 0.000682412 0.00390168 0.000513164 2.65217 15.1948 1.98934
829 3 9.6 -24.9589 -89.4382 -136.285 0.00118918 0.00417204 0.00636073 4.62951 16.2523 24.7701
846 3 9.6 -168.247 -42.7087 -51.4979 0.00747782 0.00175341 0.00218726 29.1279 6.82565 8.51666
863 3 9.6 -47.5321 -35.1241 -22.7574 0.00207682 0.00147074 0.00108389 8.09231 5.71771 4.22299
896 3 9.6 -4.70889 -42.6985 -163.251 0.000500651 0.00278742 0.00732701 1.97381 10.8953 28.555
901 3 9.6 -75.14 -136.519 -76.3043 0.00336644 0.0062216 0.00340887 13.1117 24.2288 13.2735
903 3 9.6 -62.1588 -32.2372 -31.9376 0.00273846 0.0014022 0.00116768 10.6581 5.45491 4.53014
906 3 9.6 -76.1087 -168.119 -21.2543 0.00364198 0.0073304 0.0012278 14.1949 28.5669 4.78229
916 3 9.6 -118.008 -19.5661 -64.5147 0.0048808 0.000808877 0.00288816 18.9926 3.14807 11.2553
925 3 9.6 -76.1223 -49.8261 -56.162 0.00353627 0.00226526 0.00263579 13.7762 8.8219 10.2703
930 3 9.6 -77.3034 -98.9613 -111.298 0.0039293 0.00460278 0.00506137 15.3237 17.9261 19.7291
933 3 9.6 -122.739 -98.5756 -83.5722 0.00544816 0.0046136 0.00377298 21.2214 17.97 14.693
936 3 9.6 -53.7611 -51.0248 -160.575 0.00249183 0.00225124 0.00739602 9.70801 8.76061 28.8063
968 3 9.6 -61.0006 -132.197 -94.9952 0.00297047 0.0059246 0.00409571 11.5738 23.0722 15.9315
969 3 9.6 -45.0685 -85.4227 -105.763 0.00192961 0.00415193 0.00519459 7.50841 16.175 20.2428
972 3 9.6 -81.8898 -61.9379 -49.4613 0.00373134 0.00293489 0.00252767 14.5356 11.4409 9.85539
989 3 9.6 -148.238 -49.5542 -83.4106 0.00662069 0.00220906 0.00385291 25.793 8.6064 15.0153
992 3 9.6 -110.859 -11.5714 -45.2547 0.00505702 0.000204516 0.00207096 19.6976 0.788492 8.06476
1007 3 9.6 -100.441 -52.5839 -136.068 0.00454408 0.00267804 0.00627399 17.7019 10.4345 24.4411
1008 3 9.6 -93.0382 -50.3279 -37.5835 0.00450756 0.00232157 0.00163553 17.5914 9.04688 6.38197
1017 3 9.6 -18.0896 -16.8792 -175.27 0.000533101 0.00073599 0.00801027 2.05172 2.85153 31.2164
1018 3 9.6 -78.851 -45.8543 -131.614 0.00366551 0.00239896 0.00575409 14.2759 9.35686 22.4042
1019 3 9.6 -158.34 -14.6931 -48.2474 0.00722498 0.00028047 0.00213658 28.1487 1.08063 8.3163
1023 3 9.6 -79.1137 -66.328 -128.263 0.00398404 0.00275172 0.00574141 15.552 10.6921 22.3624
1028 3 9.6 -41.0489 -130.075 -61.874 0.00180622 0.00605566 0.00288857 7.0344 23.5912 11.2515
1065 3 9.6 -96.465 -101.258 -53.1728 0.00467067 0.00480797 0.00242988 18.201 18.7346 9.46582
1077 3 9.6 -18.6655 -96.6004 -88.1314 0.000640997 0.00466659 0.00388785 2.48361 18.1842 15.1295
1085 3 9.6 -26.6914 -28.6449 -104.614 0.00116586 0.0013145 0.00473002 4.53758 5.12016 18.4322
1087 3 9.6 -93.6904 -57.2023 -99.1721 0.00439677 0.00261877 0.00484187 17.1248 10.2008 18.8729
1109 3 9.6 -28.3186 -157.915 -69.3526 0.0014246 0.0072732 0.00287086 5.55159 28.3279 11.1607
1121 3 9.6 -86.6083 -10.0508 -126.281 0.00383861 0.000530257 0.00546833 14.9594 2.06461 21.286
1132 3 9.6 -1.77994 -69.4209 -65.6119 -0.000269491 0.00313182 0.00333699 -1.07767 12.1987 13.0063
1139 3 9.6 -134.438 -124.167 -2.22728 0.00615529 0.00533533 0.00021963 23.9759 20.7811 0.857016
1162 3 9.6 -64.1957 -150.674 -21.5979 0.00311097 0.0066482 0.0014793 12.1373 25.8639 5.7899
1170 3 9.6 -76.9572 -8.58632 -137.884 0.00323576 0.000477071 0.00614623 12.5864 1.86442 23.9409
1210 3 9.6 -1.44071 -79.0656 -118.031 -7.74802e-05 0.00340797 0.00508285 -0.317277 13.2683 19.7825
1215 3 9.6 -29.26 -14.0867 -69.0822 0.00119244 0.000553127 0.00303831 4.6313 2.15907 11.8323
1218 3 9.6 -38.9723 -23.2855 -154.519 0.00202977 0.00121702 0.00690945 7.92648 4.74244 26.9076
1222 3 9.6 -116.648 -39.878 -128.58 0.00560019 0.00187144 0.00570537 21.8234 7.29178 22.215
1227 3 9.6 -16.0538 -2.16792 -27.7324 0.000780228 3.83805e-05 0.00086091 3.03623 0.142348 3.3388
1228 3 9.6 -77.264 -77.5308 -94.6805 0.00371549 0.00352565 0.00447606 14.4804 13.7321 17.4359
1248 3 9.6 -44.8118 -151.374 -89.6025 0.00212304 0.0069482 0.00424294 8.27334 27.0842 16.5268
1249 3 9.6 -61.1316 -46.4541 -131.663 0.00261545 0.002231 0.00593152 10.1823 8.70028 23.1067
1259 3 9.6 -74.8318 -30.1054 -165.27 0.00325848 0.00188085 0.00768566 12.7066 7.36155 29.979
1296 3 9.6 -66.6806 -21.5988 -51.4049 0.00316339 0.000909687 0.00232559 12.3278 3.53972 9.06557
1299 3 9.6 -20.3658 -71.2232 -11.3347 0.000901599 0.00330602 0.000421905 3.50745 12.8793 1.63438
1303 3 9.6 -70.1451 -114.296 -83.6235 0.00341463 0.0054058 0.00352285 13.3058 21.0587 13.7082
1332 3 9.6 -25.0831 -26.9699 -175.212 0.00111273 0.00215989 0.00784194 4.32218 8.46659 30.5346
1336 3 9.6 -15.9813 -0.383486 -164.283 0.000755912 -0.000411835 0.00764853 2.94384 -1.64252 29.8115
1337 3 9.6 -158.731 -60.2866 -60.9639 0.00702749 0.00297832 0.00298419 27.3732 11.6098 11.6257
1353 3 9.6 -29.8586 -38.4409 -32.3847 0.00131217 0.00172541 0.0015647 5.10516 6.72278 6.09007
1354 3 9.6 -1.57597 -91.8721 -113.154 -0.000142445 0.00435676 0.0051435 -0.569826 16.9738 20.0257
1355 3 9.6 -61.5485 -104.151 -57.4974 0.00280319 0.00471324 0.00300989 10.9221 18.3569 11.7357
1370 3 9.6 -5.47633 -22.9683 -116.729 0.000189683 0.00122524 0.00526185 0.740378 4.78652 20.4908
1375 3 9.6 -50.1029 -36.2643 -152.675 0.00235131 0.00197024 0.00687289 9.1648 7.68077 26.7673
1378 3 9.6 -41.4381 -17.8474 -176.193 0.00255998 0.000790253 0.00769466 10.0215 3.07592 29.9737
1383 3 9.6 -48.5811 -59.1428 -16.2494 0.00223124 0.00266951 0.000650051 8.68989 10.3952 2.52797
1391 3 9.6 -7.05552 -82.3931 -127.231 0.000524964 0.00393482 0.00595965 2.05594 15.338 23.224
1392 3 9.6 -38.951 -79.8133 -95.5372 0.00165389 0.00378538 0.00477293 6.43914 14.7516 18.6188
1412 3 9.6 -38.3073 -104.307 -96.4381 0.00176626 0.00512188 0.00448047 6.88189 19.9648 17.4552
1422 3 9.6 -20.8532 -21.9177 -64.4995 0.000691037 0.00102236 0.00291983 2.68061 3.98694 11.3734
1424 3 9.6 -47.9236 -162.235 -21.0191 0.00203836 0.00733479 0.00107948 7.92599 28.577 4.20852
1435 3 9.6 -4.20876 -161.88 -16.0114 0.000455467 0.00684003 0.000723081 1.8052 26.618 2.81435
1444 3 9.6 -64.5657 -65.0327 -37.1844 0.0027162 0.00314663 0.00154044 10.5656 12.263 5.98868
1450 3 9.6 -92.4454 -29.8192 -122.18 0.00393313 0.00134435 0.0053308 15.3031 5.23369 20.7582
1455 3 9.6 -75.6965 -26.7608 -114.448 0.00358696 0.00107242 0.00533807 13.9763 4.17487 20.8009
1458 3 9.6 -37.018 -47.2803 -21.1081 0.00146284 0.00218901 0.00101744 5.68561 8.53033 3.95864
1460 3 9.6 -148.459 -8.60256 -77.2398 0.00690242 0.000400382 0.00359968 26.8983 1.56243 14.0292
1469 3 9.6 -60.2827 -97.9853 -18.3316 0.00266904 0.00437066 0.000626257 10.395 17.025 2.43785
1470 3 9.6 -117.049 -65.3514 -87.7844 0.00539857 0.0032317 0.00426429 21.0337 12.6004 16.6249
1475 3 9.6 -56.8324 -133.309 -32.9023 0.00255725 0.00608025 0.00159773 9.96186 23.6888 6.22604
1477 3 9.6 -82.8536 -24.4539 -55.6832 0.00378193 0.000966456 0.00268291 14.7311 3.75198 10.4592
1487 3 9.6 -41.6899 -78.4334 -158.924 0.00179683 0.00361581 0.00703776 6.99661 14.0817 27.4067
1488 3 9.6 -113.641 -30.7111 -77.0834 0.00524684 0.0013883 0.00342563 20.4449 5.40034 13.3468
1490 3 9.6 -102.463 -85.5468 -30.3317 0.0049424 0.00409086 0.00148073 19.2715 15.9393 5.75852
1500 3 9.6 -21.4007 -117.738 -93.3295 0.00105065 0.00517496 0.00423957 4.0856 20.1486 16.5192
1518 3 9.6 -3.08933 -12.6956 -170.519 -0.000156249 0.000289854 0.007945 -0.606512 1.114 30.9732
1519 3 9.6 -23.9807 -135.289 -74.5563 0.000914244 0.0058937 0.00330331 3.55086 22.9469 12.8668
1524 3 9.6 -146.927 -69.1189 -56.2225 0.00680736 0.00343565 0.00284792 26.5286 13.383 11.1029
1526 3 9.6 -51.8061 -90.0548 -25.0553 0.0024149 0.00405288 0.00127987 9.40868 15.7853 4.97933
1532 3 9.6 -17.3307 -75.475 -52.7545 0.000769973 0.00360613 0.00213816 3.00001 14.055 8.30731
1536 3 9.6 -3.47913 -34.3285 -154.894 0.000402814 0.00209413 0.00681364 1.59296 8.18082 26.5247
1545 3 9.6 -70.5852 -58.2324 -157.77 0.00309633 0.00262502 0.00691531 12.0583 10.2256 26.9297
1547 3 9.6 -72.2765 -39.5418 -60.7125 0.00325657 0.00162672 0.00273105 12.6779 6.33126 10.6428
1562 3 9.6 -78.764 -124.67 -16.4373 0.00366723 0.00569647 0.000697378 14.2883 22.1931 2.71232
1566 3 9.6 -18.9742 -129.049 -107.435 0.000773659 0.00548479 0.00505231 3.01493 21.3504 19.6894
1567 3 9.6 -92.2186 -94.1918 -96.8889 0.00434954 0.00413946 0.00455881 16.9525 16.1123 17.7612
1568 3 9.6 -30.8573 -66.127 -24.5077 0.00166053 0.00286806 0.00130706 6.48755 11.1729 5.10064
1575 3 9.6 -29.7336 -94.6188 -7.45085 0.00128722 0.0043784 9.07898e-05 5.00346 17.0608 0.338253
1580 3 9.6 -117.837 -101.96 -32.6826 0.00549537 0.0047006 0.00188432 21.4161 18.3103 7.36442
1582 3 9.6 -23.7643 -155.95 -80.3973 0.000927709 0.00691961 0.00368917 3.60429 26.956 14.3735
1584 3 9.6 -64.4313 -147.737 -48.1908 0.00291284 0.00671288 0.00236794 11.3403 26.1565 9.23046
1588 3 9.6 -39.6434 -29.5397 -135.098 0.00209621 0.00163238 0.005928 8.1729 6.37153 23.077
1593 3 9.6 -69.7534 -83.9245 -130.373 0.00313646 0.00424988 0.00621399 12.2181 16.5803 24.2112
1604 3 9.6 -82.7177 -148.557 -0.392445 0.00407591 0.00671634 6.05757e-05 15.8831 26.1659 0.22276
1610 3 9.6 -59.5442 -53.4149 -47.2428 0.00229854 0.00242731 0.00218449 8.93508 9.45857 8.50463
1611 3 9.6 -58.1495 -0.575237 -142.177 0.00307721 -0.000116087 0.00638283 12.0094 -0.451745 24.8749
1628 3 9.6 -43.028 -66.9512 -39.6961 0.00209148 0.00297933 0.00179293 8.15005 11.6068 6.97984
1644 3 9.6 -52.6611 -61.6117 -155.159 0.00228436 0.00312032 0.00688127 8.8972 12.1675 26.7909
1645 3 9.6 -40.7166 -96.9575 -5.16801 0.00219114 0.00464589 -4.09377e-05 8.55735 18.109 -0.173801
1655 3 9.6 -77.9399 -77.318 -75.6261 0.00340371 0.0037138 0.00343906 13.255 14.4687 13.3983
1670 3 9.6 -87.9653 -121.002 -48.8336 0.00410481 0.00566943 0.00251146 15.9904 22.0871 9.7924
1672 3 9.6 -63.2503 -87.6855 -94.5226 0.00294194 0.00376545 0.00448141 11.4609 14.6586 17.4725
1674 3 9.6 -144.526 -3.06543 -14.3263 0.0063578 1.44384e-05 0.000569926 24.7597 0.0520355 2.21165
1679 3 9.6 -124.245 -46.7639 -89.4773 0.00572358 0.00210502 0.00436686 22.294 8.20391 17.027
1680 3 9.6 -89.8417 -30.9886 -43.9125 0.00438394 0.0013898 0.00191607 17.0905 5.41251 7.4626
1685 3 9.6 -90.2273 -13.6312 -62.9668 0.00422261 0.000387504 0.00288573 16.4576 1.50094 11.2396
1688 3 9.6 -10.95 -77.0424 -34.6717 0.000764268 0.0037861 0.00155672 3.00411 14.7856 6.07289
1690 3 9.6 -57.8391 -114.927 -45.1598 0.00292504 0.00523495 0.00243507 11.4262 20.3886 9.50298
1697 3 9.6 -116.132 -105.847 -5.3934 0.0053866 0.00498361 0.000596246 20.9864 19.4218 2.33818
1704 3 9.6 -112.493 -34.1641 -51.1394 0.00506964 0.0012324 0.00230152 19.7476 4.78776 8.96156
1709 3 9.6 -67.39 -80.2182 -50.6587 0.00287035 0.00386222 0.00248392 11.173 15.0559 9.68357
1715 3 9.6 -138.16 -103.861 -17.2617 0.00650562 0.00497027 0.000888049 25.3514 19.3654 3.4645
1722 3 9.6 -123.997 -12.4839 -16.2413 0.00553349 0.000684554 0.000721073 21.5517 2.66861 2.80808
1723 3 9.6 -27.0216 -120.684 -76.2775 0.00116941 0.00528234 0.00372535 4.54335 20.566 14.5118
1736 3 9.6 -85.6764 -6.77897 -103.865 0.0035058 0.00035681 0.00515077 13.6271 1.39087 20.0841
1745 3 9.6 -22.6768 -4.14342 -105.414 0.00117069 0.000339334 0.00466247 4.5757 1.32687 18.151
1751 3 9.6 -38.1794 -82.6451 -51.3882 0.00214553 0.00397997 0.00245747 8.36848 15.5273 9.57284
1761 3 9.6 -88.8281 -115.605 -106.191 0.00381677 0.00519696 0.00516426 14.8482 20.2533 20.1339
1762 3 9.6 -1.89897 -173.856 -47.4257 9.1252e-05 0.00765564 0.00206112 0.351456 29.82 8.02346
1775 3 9.6 -24.873 -60.2186 -16.9303 0.00115619 0.00230206 0.000492965 4.50653 8.94448 1.90516
1776 3 9.6 -104.593 -63.8824 -14.1058 0.00476675 0.00284043 0.000815795 18.577 11.0588 3.18045
1779 3 9.6 -72.2369 -77.844 -25.8974 0.00290934 0.00363086 0.00100219 11.3059 14.1455 3.89294
1782 3 9.6 -153.141 -29.2076 -49.3199 0.00696492 0.00130411 0.0021497 27.1319 5.08196 8.37149
1785 3 9.6 -64.5333 -48.4402 -2.67394 0.00287278 0.00200065 0.000158511 11.1927 7.78543 0.61811
1786 3 9.6 -111.392 -78.9895 -77.1479 0.00519733 0.00392609 0.0037076 20.2535 15.3074 14.4518
1816 3 9.6 -56.8237 -134.16 -105.556 0.00236812 0.00606701 0.00504032 9.21966 23.63 19.646
1826 3 9.6 -23.2136 -34.6687 -84.1346 0.000945672 0.00139447 0.00408434 3.6759 5.42569 15.9213
1844 3 9.6 -127.7 -36.4825 -23.2672 0.00564848 0.00119524 0.000895251 22 4.63926 3.48692
1849 3 9.6 -58.6677 -165.004 -29.5577 0.00281219 0.0075583 0.00172484 10.9577 29.4537 6.73863
1876 3 9.6 -150.289 -29.151 -98.6591 0.00676506 0.00132144 0.00412627 26.3685 5.14338 16.0488
1879 3 9.6 -71.7957 -24.0468 -70.5889 0.00340693 0.000951307 0.00320088 13.2707 3.70023 12.472
1883 3 9.6 -5.91229 -125.692 -29.0062 0.000299258 0.00548669 0.00149902 1.18101 21.3644 5.84212
1903 3 9.6 -113.099 -105.877 -23.2131 0.00496689 0.00506181 0.00099235 19.3425 19.7306 3.85505
1916 3 9.6 -68.9166 -2.74941 -165.419 0.0032488 -9.10872e-05 0.00733956 12.6608 -0.360116 28.5805
1917 3 9.6 -14.6553 -160.98 -43.4554 0.000729972 0.00706004 0.00201868 2.84772 27.4955 7.86642
1926 3 9.6 -108.612 -62.0996 -58.4113 0.00498429 0.00285752 0.00271864 19.4153 11.1336 10.5901
1929 3 9.6 -99.2673 -67.9265 -81.0529 0.00465706 0.00315959 0.00402825 18.145 12.3105 15.7071
1939 3 9.6 -136.019 -97.6473 -50.7218 0.0062478 0.00446593 0.0023763 24.335 17.3943 9.25688
1940 3 9.6 -14.7096 -129.329 -90.8868 0.000629062 0.00559094 0.0041381 2.44777 21.7603 16.1192
1944 3 9.6 -15.0933 -42.9629 -146.15 0.000733378 0.00278457 0.00642613 2.861 10.8799 25.0201
1954 3 9.6 -134.624 -116.472 -38.5278 0.00604955 0.00511211 0.00175531 23.5586 19.9105 6.83582
1955 3 9.6 -61.0246 -15.3802 -147.851 0.00283483 0.000622491 0.00640116 11.0442 2.41349 24.9254
1965 3 9.6 -38.4134 -57.0582 -165.861 0.00149327 0.00277146 0.00750888 5.81101 10.7977 29.2434
1966 3 9.6 -46.522 -49.5676 -80.3265 0.0023436 0.00218092 0.00364256 9.12733 8.4888 14.1994
1969 3 9.6 -101.2 -22.1082 -149.295 0.00451961 0.0010367 0.00669648 17.6008 4.04178 26.0847
1972 3 9.6 -70.7742 -142.004 -5.44391 0.00335605 0.00632817 0.000150639 13.0859 24.639 0.582911
1982 3 9.6 -109.269 -9.14909 -74.5097 0.00495052 0.000279031 0.00315691 19.2853 1.08686 12.2854
1985 3 9.6 -65.7725 -161.873 -46.9582 0.00287744 0.00738044 0.00214048 11.2047 28.7537 8.33842
1986 3 9.6 -89.8452 -89.1055 -10.2653 0.00419525 0.00400783 0.000349219 16.3468 15.6105 1.35987
1987 3 9.6 -26.3335 -37.4187 -162.492 0.00124213 0.0024059 0.00755707 4.84218 9.39513 29.446
1989 3 9.6 -157.848 -23.4789 -85.0091 0.00731942 0.000954476 0.00380496 28.5194 3.72278 14.8253
1990 3 9.6 -97.871 -131.45 -10.8173 0.00431136 0.00641641 0.000682987 16.795 25.0044 2.66739
1998 3 9.6 -127.684 -83.8712 -68.6555 0.00591691 0.00397415 0.00363992 23.0582 15.4929 14.2038
2000 3 9.6 -45.8871 -124.595 -72.0608 0.00208066 0.00514948 0.00353957 8.11172 20.0381 13.7838
2005 3 9.6 -146.792 -73.9997 -44.7351 0.00666072 0.00364742 0.00193906 25.9517 14.2283 7.5526
2006 3 9.6 -10.1627 -103.177 -66.6751 0.000422814 0.00503896 0.00321449 1.64743 19.64 12.5266
2011 3 9.6 -36.3407 -115.339 -60.5354 0.00185963 0.00536391 0.00323876 7.26191 20.9238 12.6464
2017 3 9.6 -98.0748 -149.834 -33.6057 0.00443725 0.00660452 0.00140461 17.2819 25.7233 5.47194
2021 3 9.6 -51.9416 -35.563 -102.031 0.00216483 0.00170536 0.00475556 8.42467 6.65799 18.5293
2031 3 9.6 -54.0685 -94.9727 -145.896 0.00199846 0.00436072 0.00655996 7.77823 16.9953 25.5465
2036 3 9.6 -47.7599 -43.6287 -90.6662 0.00199312 0.00180874 0.00425834 7.77128 7.0419 16.5936
2061 3 9.6 -42.0193 -88.67 -15.7119 0.00222899 0.00407288 0.000669938 8.70394 15.8674 2.61237
2082 3 9.6 -168.871 -54.7293 -53.2162 0.00742574 0.00268479 0.00244199 28.9296 10.467 9.50812
2086 3 9.6 -12.8721 -14.5089 -55.3609 0.00045384 0.00073011 0.00285268 1.77138 2.85355 11.1401
2104 3 9.6 -173.133 -22.2027 -22.2337 0.00757767 0.00126175 0.00176416 29.4934 4.93081 6.90545
2107 3 9.6 -170.483 -55.4047 -8.74009 0.00783187 0.00273973 0.000167778 30.5146 10.6693 0.655271
2109 3 9.6 -20.6647 -52.8168 -122.809 0.000750918 0.00255577 0.00596296 2.91476 9.96049 23.2395
2120 3 9.6 -5.77783 -11.2711 -123.594 0.000224357 0.000584594 0.00576172 0.871479 2.28494 22.4369
2155 3 9.6 -46.2008 -110.366 -119.383 0.00167223 0.00529409 0.00552108 6.5026 20.6285 21.5026
2160 3 9.6 -70.3638 -29.5938 -153.491 0.00300715 0.00183269 0.0066966 11.6921 7.16948 26.046
2165 3 9.6 -37.3019 -22.2439 -70.8237 0.00189937 0.00120671 0.00334904 7.40956 4.71536 13.0506
2171 3 9.6 -67.698 -17.4372 -126.162 0.00298694 0.000648355 0.00561029 11.6339 2.51943 21.8532
2181 3 9.6 -32.4888 -31.2536 -13.7115 0.00136997 0.00142515 0.000242886 5.32648 5.5533 0.926484
2190 3 9.6 -168.903 -29.1422 -53.6791 0.00763847 0.00101991 0.00227327 29.7547 3.97194 8.84756
2194 3 9.6 -103.61 -47.8642 -21.8956 0.00478263 0.00212428 0.000882922 18.6357 8.26065 3.43011
2200 3 9.6 -68.7414 -128.725 -41.535 0.00320963 0.00574335 0.00184297 12.5041 22.3729 7.16699
2210 3 9.6 -130.29 -29.1325 -106.788 0.00574025 0.00162514 0.00515675 22.3718 6.34472 20.1044
2211 3 9.6 -147.183 -20.6492 -3.47946 0.00630178 0.000854914 0.000329311 24.529 3.32132 1.28982
2223 3 9.6 -105.781 -131.452 -31.158 0.00501476 0.00616771 0.00137945 19.5425 24.0233 5.37334
2233 3 9.6 -81.1545 -60.1346 -63.4705 0.00368216 0.00303058 0.00332493 14.3521 11.8174 12.9671
2235 3 9.6 -107.764 -31.3432 -125.856 0.00501599 0.00151547 0.00541693 19.554 5.90809 21.0891
2236 3 9.6 -93.1242 -39.5896 -59.4914 0.00433578 0.00165559 0.00267543 16.8991 6.44463 10.4232
2240 3 9.6 -47.9593 -7.74427 -23.065 0.00198111 0.000265771 0.000731778 7.71003 1.02055 2.84629
2243 3 9.6 -34.0689 -96.879 -53.0035 0.00167294 0.00412135 0.00245584 6.52111 16.0201 9.55561
2246 3 9.6 -8.9978 -40.4095 -67.3805 0.000110888 0.00162385 0.00316197 0.413714 6.31831 12.327
2261 3 9.6 -47.2713 -44.0138 -15.6592 0.00218852 0.00204974 0.000430826 8.52658 7.99247 1.66353
2263 3 9.6 -53.0845 -25.5403 -109.229 0.00244497 0.000963556 0.00550962 9.52078 3.74629 21.4852
2264 3 9.6 -144.136 -86.8881 -7.5211 0.00651234 0.00428862 0.000333373 25.3671 16.7122 1.2971
2288 3 9.6 -107.318 -123.499 -54.0705 0.00506401 0.00547161 0.0024432 19.7327 21.304 9.51963
2298 3 9.6 -35.7669 -165.641 -50.4499 0.00180178 0.00747374 0.0025054 7.0202 29.1068 9.76275
2306 3 9.6 -21.6458 -103.35 -98.1857 0.000885775 0.00508405 0.00465692 3.44504 19.8401 18.145
2340 3 9.6 -42.548 -110.31 -42.1222 0.00198426 0.00456162 0.00216972 7.72753 17.7348 8.4651
2344 3 9.6 -61.4386 -85.9961 -145.787 0.00263659 0.00384199 0.00658841 10.2718 14.9569 25.6621
2355 3 9.6 -148.72 -60.868 -77.3195 0.00669233 0.00315987 0.00358107 26.0704 12.3177 13.9467
2358 3 9.6 -79.951 -106.905 -31.7767 0.0037105 0.0051307 0.00118514 14.454 20.0023 4.59997
2363 3 9.6 -53.483 -25.2992 -84.0985 0.00212347 0.00122732 0.00375155 8.25656 4.78346 14.6108
2377 3 9.6 -59.8122 -1.02307 -70.0387 0.00274791 -0.00019924 0.00315936 10.6975 -0.789825 12.3
2391 3 9.6 -23.5423 -112.85 -109.855 0.00115305 0.0051438 0.00532439 4.4848 20.04 20.7418
2399 3 9.6 -14.9453 -168.06 -77.0099 0.000612817 0.00746118 0.00310838 2.38344 29.0754 12.0942
2417 3 9.6 -84.1641 -32.4265 -84.251 0.00379522 0.00147053 0.00417825 14.7766 5.72981 16.2911
2430 3 9.6 -4.596 -72.8555 -133.595 0.000123867 0.0030178 0.00629578 0.486451 11.7401 24.5306
2450 3 9.6 -1.87025 -41.6466 -87.9874 0.000201156 0.00186672 0.0039244 0.778379 7.26859 15.2882
2452 3 9.6 -9.4524 -182.945 -27.9789 0.000674272 0.00807009 0.00131043 2.63152 31.4401 5.10813
2471 3 9.6 -115.204 -28.9687 -108.736 0.00497266 0.0017235 0.00519571 19.3661 6.73412 20.2557
2481 3 9.6 -133.674 -46.2825 -17.6862 0.00605077 0.00180144 0.00056285 23.5742 7.00229 2.18133
2486 3 9.6 -112.748 -91.6171 -18.7218 0.00499621 0.00400561 0.000922034 19.4519 15.5979 3.59149
2491 3 9.6 -134.296 -11.9912 -7.47442 0.00595831 0.000545059 0.000226324 23.2068 2.12803 0.88064
2504 3 9.6 -102.613 -8.16515 -0.19489 0.00433689 7.88112e-05 0.000307238 16.8785 0.285872 1.20935
2508 3 9.6 -62.9362 -63.7824 -130.826 0.00242148 0.00256178 0.00606223 9.40933 9.94096 23.623
2514 3 9.6 -122.477 -57.3858 -50.2015 0.00559595 0.00240882 0.00235183 21.7912 9.37858 9.15303
2521 3 9.6 -52.709 -143.185 -89.2696 0.00285895 0.00642256 0.00408001 11.1553 25.0052 15.8927
2525 3 9.6 -21.165 -121.924 -31.3121 0.000675355 0.00562072 0.00129462 2.60515 21.9019 5.0325
2526 3 9.6 -108.666 -93.1686 -5.10157 0.00472546 0.004091 0.000323812 18.4014 15.921 1.26459
2532 3 9.6 -99.0846 -104.345 -89.6823 0.00490869 0.00461353 0.00369043 19.1245 17.9632 14.3617
2541 3 9.6 -31.8057 -153.372 -56.0299 0.00165138 0.00696175 0.00267802 6.43045 27.1223 10.4386
2544 3 9.6 -169.48 -34.1987 -66.1816 0.0075724 0.00142338 0.0029953 29.5066 5.54025 11.666
2545 3 9.6 -156.449 -77.109 -31.0037 0.00692504 0.00397475 0.00163017 26.9732 15.4978 6.3626