ITEM: TIMESTEP
3600
ITEM: NUMBER OF ATOMS
6100
ITEM: BOX BOUNDS ff ff ff
-1.0000000000000000e+03 1.0000000000000000e+03
-1.0000000000000000e+03 1.0000000000000000e+03
-1.0000000000000000e+03 1.0000000000000000e+03
ITEM: ATOMS id type diameter x y z vx vy vz fx fy fz
3 1 7.68 -174.9 -23.0152 -44.4977 0.00156337 0.000145576 0.000366644 15.3959 1.43358 3.61063
10 1 7.68 -56.3616 -113.982 -93.5129 0.000427977 0.00106291 0.000842859 4.21443 10.4677 8.30042
20 1 7.68 -156.121 -37.6483 -90.2133 0.00135855 0.000370939 0.000782879 13.379 3.65307 7.70975
25 1 7.68 -97.04 -36.0991 -151.606 0.000909291 0.000308156 0.00132916 8.95498 3.0345 13.0894
30 1 7.68 -4.96075 -24.0946 -19.9981 7.64013e-05 0.000264816 4.57411e-05 0.752818 2.60832 0.449934
35 1 7.68 -109.794 -74.6666 -10.9219 0.00101604 0.000702206 0.000135058 10.006 6.91546 1.33001
44 1 7.68 -150.76 -89.4601 -61.8528 0.00126791 0.000811034 0.000566751 12.4862 7.98703 5.58128
57 1 7.68 -47.9328 -113.414 -3.87336 0.0004404 0.000944691 5.32031e-05 4.33717 9.30295 0.524002
62 1 7.68 -116.115 -26.955 -6.75173 0.00102278 0.000218581 0.000112409 10.0723 2.15263 1.10719
67 1 7.68 -28.0819 -70.3578 -127.173 0.000176561 0.00063558 0.00116832 1.73846 6.25917 11.5059
72 1 7.68 -87.7336 -130.115 -82.274 0.000756579 0.00116345 0.000696444 7.45083 11.4576 6.85831
79 1 7.68 -9.96233 -130.466 -59.6855 5.42649e-05 0.00116293 0.000558041 0.534249 11.4524 5.49563
93 1 7.68 -163.953 -35.8482 -19.3931 0.0014154 0.000304455 0.000225497 13.9388 2.99806 2.2207
122 1 7.68 -74.6456 -76.812 -62.7611 0.000668981 0.000737565 0.000599274 6.58809 7.26374 5.90197
125 1 7.68 -57.1499 -20.2752 -167.463 0.000489254 0.000219049 0.00151197 4.81797 2.1571 14.89
127 1 7.68 -79.7014 -32.1156 -13.2125 0.000706677 0.000211383 3.7178e-05 6.95943 2.08157 0.365876
149 1 7.68 -124.631 -114.115 -68.5693 0.00112598 0.000999656 0.000616784 11.0885 9.8444 6.07402
150 1 7.68 -68.9638 -106.105 -93.5314 0.000626018 0.000969536 0.000780743 6.16515 9.5482 7.68852
157 2 8.64 -61.872 -75.4259 -17.8116 0.00051827 0.000711647 0.000125747 7.26699 9.97877 1.7632
162 2 8.64 -13.8001 -108.139 -150.831 0.000175425 0.000885597 0.00130565 2.45971 12.4172 18.3071
166 2 8.64 -37.989 -31.8984 -119.94 0.000332013 0.000271914 0.00109363 4.65534 3.81263 15.335
178 2 8.64 -94.4362 -18.1644 -102.291 0.000828596 0.000256348 0.000967259 11.6183 3.59508 13.5631
187 2 8.64 -32.5232 -106.044 -140.636 0.000303716 0.000915273 0.00121601 4.25854 12.8335 17.0504
193 2 8.64 -120.601 -60.5001 -108.891 0.0010549 0.000571181 0.00101021 14.7915 8.00904 14.165
208 2 8.64 -63.2399 -130.648 -57.0958 0.000574994 0.00118645 0.000625282 8.06221 16.6361 8.76819
215 2 8.64 -135.726 -9.17881 -51.6734 0.00117131 3.56033e-05 0.00041824 16.4238 0.499047 5.8641
230 2 8.64 -95.3347 -59.0897 -46.699 0.000915562 0.000529957 0.000445563 12.8384 7.43082 6.24758
237 2 8.64 -111.925 -17.3203 -27.0836 0.00100328 0.000179662 0.000217151 14.0679 2.51901 3.04469
253 2 8.64 -35.0205 -145.536 -21.0966 0.000354811 0.00123855 0.000175966 4.97521 17.3665 2.46723
255 2 8.64 -36.2036 -41.2637 -52.4312 0.000355007 0.000258741 0.00036704 4.9788 3.6266 5.14532
256 2 8.64 -26.5222 -91.1794 -76.0539 0.000281933 0.000929539 0.000698552 3.95357 13.0349 9.79514
257 2 8.64 -28.2309 -143.057 -1.84979 0.000215124 0.00127963 9.66723e-05 3.0163 17.9429 1.3561
265 2 8.64 -61.4103 -117.32 -66.8966 0.000577573 0.00105509 0.000647353 8.09866 14.7943 9.07748
276 2 8.64 -130.757 -38.6549 -47.0655 0.00116524 0.000331422 0.000397191 16.3387 4.6469 5.56909
288 2 8.64 -116.091 -21.5905 -40.0448 0.00104275 0.000191612 0.000324228 14.6215 2.6867 4.54592
296 2 8.64 -32.3526 -71.7006 -88.7194 0.000257718 0.000717479 0.000881268 3.61364 10.0611 12.3578
305 2 8.64 -8.0871 -91.3486 -49.1791 6.40298e-05 0.000906527 0.000455964 0.89789 12.7118 6.39354
307 2 8.64 -113.373 -114.556 -65.0527 0.00101119 0.00102491 0.000591282 14.1787 14.371 8.2909
315 2 8.64 -4.17133 -105.073 -102.856 9.97575e-06 0.000973622 0.000966559 0.139588 13.6521 13.553
321 2 8.64 -49.2137 -109.57 -22.1893 0.000426454 0.000959298 0.000134689 5.97965 13.4509 1.88817
323 2 8.64 -57.7585 -30.5715 -129.34 0.000482434 0.000259574 0.00115723 6.76436 3.63967 16.2264
328 2 8.64 -92.2344 -66.0621 -36.899 0.000886453 0.000588897 0.000245621 12.4305 8.25755 3.44354
340 2 8.64 -103.288 -56.3458 -79.9858 0.000898409 0.0005321 0.000775218 12.5972 7.46145 10.8703
352 2 8.64 -73.688 -6.27791 -60.9312 0.000690166 1.02909e-05 0.0005407 9.67751 0.144054 7.58153
360 2 8.64 -168.814 -12.7007 -65.4991 0.00151244 3.6774e-05 0.000579922 21.2073 0.515383 8.13149
364 2 8.64 -147.252 -15.0721 -18.4523 0.00127428 0.000178088 0.000169229 17.8676 2.49732 2.37296
366 2 8.64 -18.0784 -62.5783 -165.641 0.000193932 0.000551868 0.0014546 2.71928 7.73789 20.3959
378 2 8.64 -20.2076 -12.8967 -83.0108 0.000138189 0.000190583 0.000744638 1.9373 2.67254 10.4412
381 2 8.64 -50.7071 -71.6982 -142.415 0.00039909 0.00065795 0.00129507 5.59566 9.22547 18.1594
394 2 8.64 -76.1321 -38.9127 -29.7755 0.000638657 0.000370081 0.000154584 8.95472 5.1896 2.16672
396 2 8.64 -36.7793 -76.9433 -72.6965 0.000426572 0.000768708 0.000628798 5.98234 10.7797 8.81701
410 2 8.64 -128.932 -65.3522 -69.8497 0.00113495 0.000665473 0.000711637 15.9142 9.33125 9.97863
413 2 8.64 -30.2364 -53.3015 -4.14002 0.000255571 0.000408776 -2.8302e-05 3.58348 5.73143 -0.397134
431 2 8.64 -12.5799 -0.713207 -4.72075 0.000133724 -1.89557e-05 7.27944e-05 1.87527 -0.265918 1.02107
445 2 8.64 -60.2048 -79.8893 -123.634 0.000435335 0.000703796 0.00114607 6.10363 9.869 16.0701
449 2 8.64 -31.2068 -45.0279 -107.719 0.000262974 0.000351779 0.000970278 3.68723 4.932 13.6052
450 2 8.64 -43.9784 -176.696 -10.3983 0.000385718 0.00156557 9.75006e-05 5.40828 21.9523 1.36713
476 3 9.6 -9.80933 -1.30101 -71.7659 0.000108208 8.32809e-06 0.000645062 2.08132 0.160107 12.4072
480 3 9.6 -30.744 -4.32595 -127.783 0.000295359 3.33764e-05 0.00109876 5.68108 0.641943 21.1333
485 3 9.6 -134.622 -23.3342 -56.2138 0.00116871 0.000158472 0.000400159 22.4793 3.0471 7.69549
509 3 9.6 -89.7201 -152.225 -18.4215 0.000839031 0.00132832 0.000178455 16.1384 25.5493 3.4325
514 3 9.6 -23.6958 -73.518 -78.5656 0.000151775 0.000738115 0.000803128 2.9186 14.1984 15.449
518 3 9.6 -138.273 -54.1302 -39.1186 0.00118587 0.000419904 0.000366266 22.809 8.0762 7.04502
519 3 9.6 -79.6186 -93.7914 -4.36604 0.000697674 0.000842796 2.79927e-05 13.4191 16.2106 0.538244
521 3 9.6 -145.287 -54.6333 -96.9498 0.00126109 0.000542023 0.000861725 24.256 10.4256 16.5747
529 3 9.6 -26.3325 -110.014 -66.3381 0.000166402 0.00100884 0.00075008 3.19946 19.4048 14.4297
530 3 9.6 -146.188 -46.8783 -63.9005 0.00132942 0.000487181 0.000604048 25.571 9.37157 11.6182
552 3 9.6 -99.5832 -37.9828 -87.1062 0.000892785 0.000347052 0.000898211 17.1726 6.67548 17.2771
554 3 9.6 -51.3834 -34.7051 -49.3263 0.000439193 0.000324193 0.000459298 8.44692 6.23586 8.83416
561 3 9.6 -54.894 -57.4099 -92.522 0.0005119 0.00050043 0.000863416 9.84609 9.62511 16.6076
564 3 9.6 -75.9625 -140.875 -41.9424 0.000727627 0.00126475 0.000382847 13.996 24.3268 7.36363
573 3 9.6 -67.532 -2.65718 -104.567 0.000584245 -3.93663e-05 0.00100997 11.2376 -0.75782 19.4271
609 3 9.6 -102.921 -52.2167 -65.9085 0.000885379 0.000479976 0.000596991 17.0293 9.23209 11.4828
626 3 9.6 -163.896 -27.9952 -35.9393 0.001458 0.000237932 0.000301331 28.0437 4.5762 5.79546
627 3 9.6 -54.8203 -87.8161 -78.3329 0.000461178 0.00084373 0.000640569 8.86994 16.2288 12.3204
639 3 9.6 -46.8354 -7.37529 -59.2005 0.000417502 3.13207e-05 0.000503223 8.03046 0.602451 9.67898
660 3 9.6 -148.676 -11.364 -105.542 0.00130648 3.44287e-05 0.000968254 25.1293 0.661997 18.6238
669 3 9.6 -39.7888 -52.8632 -154.461 0.000319613 0.000552267 0.0013608 6.1473 10.6225 26.1736
689 3 9.6 -170.363 -29.1025 -12.1221 0.00142467 0.00028497 9.87586e-05 27.4016 5.48248 1.89918
697 3 9.6 -149.251 -6.11569 -30.4732 0.00133066 7.24372e-05 0.00028314 25.5943 1.39361 5.44608
722 3 9.6 -40.9035 -175.254 -35.3065 0.000393293 0.00154484 0.000356982 7.56471 29.7141 6.86651
724 3 9.6 -45.5387 -87.094 -130.389 0.000334787 0.000789584 0.00121751 6.43856 15.1871 23.418
726 3 9.6 -165.038 -41.3887 -75.148 0.00139627 0.000398456 0.000699229 26.8563 7.66418 13.4497
731 3 9.6 -58.9045 -14.0514 -49.6555 0.000510274 4.71103e-05 0.000460359 9.81433 0.905696 8.85487
732 3 9.6 -3.3351 -38.1491 -8.46171 0.00010603 0.000301162 7.804e-06 2.04017 5.79227 0.149714
738 3 9.6 -78.9808 -46.3702 -145.104 0.000656408 0.000501284 0.00132692 12.6255 9.64203 25.5228
742 3 9.6 -130.592 -94.8419 -19.7695 0.00121298 0.000858835 0.000246797 23.3312 16.5191 4.74769
758 3 9.6 -1.67713 -130.605 -101.146 -2.19314e-05 0.0010461 0.000895556 -0.422058 20.12 17.2255
763 3 9.6 -65.6348 -137.237 -18.5896 0.000639017 0.00119889 0.000169005 12.2914 23.0598 3.25055
770 3 9.6 -74.7064 -1.66306 -90.8538 0.000645696 3.88445e-06 0.00080975 12.4193 0.0747221 15.5753
773 3 9.6 -33.3664 -98.9947 -114.559 0.0002948 0.00091939 0.00109804 5.67008 17.684 21.1204
781 3 9.6 -22.3397 -137.925 -22.8404 0.00020828 0.00117283 0.000194752 4.0061 22.5578 3.74618
784 3 9.6 -154.528 -93.5977 -19.6996 0.00133521 0.000901602 0.00021155 25.6817 17.3422 4.06903
787 3 9.6 -49.9228 -97.8259 -57.8004 0.000489089 0.000845535 0.000559551 9.40775 16.263 10.7631
788 3 9.6 -94.0602 -42.4311 -29.6678 0.000910389 0.000305458 0.000188486 17.5117 5.87447 3.62403
827 3 9.6 -162.542 -23.4694 -67.3067 0.0014374 0.000154066 0.000612765 27.6474 2.96334 11.7862
828 3 9.6 -20.2771 -87.8267 -15.3683 0.000135779 0.000775556 0.000102227 2.61138 14.9171 1.9659
829 3 9.6 -25.2058 -90.3041 -137.605 0.000236421 0.000829187 0.00126439 4.54728 15.9489 24.3194
846 3 9.6 -169.799 -43.0727 -51.9519 0.00148626 0.000348604 0.000434809 28.5871 6.70499 8.36311
863 3 9.6 -47.9631 -35.4294 -22.9823 0.000412716 0.000292589 0.000215406 7.9384 5.62731 4.14321
896 3 9.6 -4.8125 -43.2765 -164.772 9.89327e-05 0.0005531 0.00145593 1.9038 10.6399 28.0043
901 3 9.6 -75.8387 -137.81 -77.0118 0.000669133 0.00123672 0.000677651 12.8702 23.7872 13.0339
903 3 9.6 -62.7273 -32.5283 -32.1802 0.0005445 0.000278865 0.000232529 10.4727 5.3635 4.47183
906 3 9.6 -76.8644 -169.64 -21.5091 0.000723652 0.00145664 0.000244037 13.9193 28.0178 4.69388
916 3 9.6 -119.022 -19.734 -65.114 0.000970552 0.000160835 0.000573911 18.6671 3.09344 11.039
925 3 9.6 -76.8562 -50.2962 -56.709 0.000702813 0.000450276 0.000523798 13.5182 8.66067 10.075
930 3 9.6 -78.1187 -99.9166 -112.348 0.000780526 0.000914892 0.00100564 15.0136 17.5972 19.3433
933 3 9.6 -123.87 -99.5331 -84.3553 0.00108286 0.000917004 0.000749991 20.8281 17.6379 14.4254
936 3 9.6 -54.2783 -51.4922 -162.11 0.000495221 0.000447651 0.00147007 9.5253 8.60993 28.2756
968 3 9.6 -61.6171 -133.427 -95.8455 0.000590319 0.00117768 0.000814585 11.3545 22.6516 15.6671
969 3 9.6 -45.4691 -86.2844 -106.841 0.000383713 0.000825164 0.00103224 7.38015 15.8715 19.8548
972 3 9.6 -82.6642 -62.5469 -49.9858 0.000741596 0.00058311 0.000502155 14.2641 11.216 9.65896
989 3 9.6 -149.612 -50.0126 -84.2102 0.0013158 0.000439023 0.000765609 25.3087 8.44435 14.7262
992 3 9.6 -111.909 -11.6139 -45.6846 0.00100513 4.08472e-05 0.000411666 19.3329 0.785355 7.91802
1007 3 9.6 -101.384 -53.1397 -137.37 0.000903121 0.000532201 0.00124693 17.3709 10.2366 23.9839
1008 3 9.6 -93.9733 -50.8097 -37.9228 0.000895089 0.000461336 0.000324802 17.2177 8.8736 6.24775
1017 3 9.6 -18.2006 -17.0321 -176.932 0.000106554 0.000146652 0.00159173 2.04857 2.82017 30.6163
1018 3 9.6 -79.6118 -46.3521 -132.808 0.000728591 0.000476505 0.00114388 14.0139 9.1657 22.0014
1019 3 9.6 -159.84 -14.7515 -48.6909 0.00143587 5.60347e-05 0.000424809 27.6181 1.07733 8.17065
1023 3 9.6 -79.9402 -66.8995 -129.454 0.000791045 0.000547561 0.00114118 15.2164 10.5309 21.9497
1028 3 9.6 -41.4238 -131.332 -62.4735 0.000359026 0.00120352 0.000574123 6.90556 23.1489 11.0428
1065 3 9.6 -97.4343 -102.256 -53.6771 0.000928135 0.000955452 0.000482931 17.8523 18.3777 9.28887
1077 3 9.6 -18.7987 -97.5689 -88.9385 0.000127724 0.000927344 0.000773082 2.45617 17.8371 14.8691
1085 3 9.6 -26.9334 -28.9177 -105.595 0.000231812 0.000261266 0.000939931 4.45859 5.02527 18.0792
1087 3 9.6 -94.6029 -57.7458 -100.177 0.000873923 0.000520492 0.000962038 16.8092 10.0113 18.5046
1109 3 9.6 -28.6143 -159.424 -69.9487 0.000283087 0.00144566 0.000571132 5.44508 27.8061 10.9845
1121 3 9.6 -87.4049 -10.1609 -127.416 0.000762772 0.000105413 0.00108721 14.6716 2.0275 20.9112
1132 3 9.6 -1.72437 -70.0709 -66.3044 -5.28809e-05 0.000622477 0.000663049 -1.0182 11.9729 12.7536
1139 3 9.6 -135.716 -125.275 -2.27284 0.00122341 0.00106045 4.36157e-05 23.5314 20.397 0.838976
1162 3 9.6 -64.8412 -152.054 -21.9045 0.00061785 0.00132215 0.000293349 11.8846 25.4294 5.6434
1170 3 9.6 -77.629 -8.68526 -139.16 0.000643554 9.4673e-05 0.0012216 12.3776 1.8212 23.4967
1210 3 9.6 -1.42482 -79.773 -119.086 -1.50244e-05 0.000677513 0.00101064 -0.28957 13.0312 19.4383
1215 3 9.6 -29.5077 -14.2014 -69.7128 0.000237333 0.000109827 0.000603943 4.56442 2.11262 11.6163
1218 3 9.6 -39.3933 -23.538 -155.953 0.000402938 0.000241842 0.00137344 7.75099 4.65173 26.417
1222 3 9.6 -117.81 -40.2664 -129.764 0.00111284 0.000371907 0.00113419 21.4051 7.15344 21.815
1227 3 9.6 -16.2157 -2.17598 -27.9113 0.000155146 7.80185e-06 0.000171468 2.984 0.149791 3.2975
1228 3 9.6 -78.0351 -78.2626 -95.6094 0.000738288 0.000700769 0.000889627 14.2007 13.4787 17.1114
1248 3 9.6 -45.2524 -152.815 -90.4831 0.000421876 0.00138052 0.000843319 8.11462 26.5541 16.2206
1249 3 9.6 -61.6745 -46.917 -132.894 0.00051997 0.000443179 0.00117887 10.001 8.52461 22.6748
1259 3 9.6 -75.5079 -30.4953 -166.864 0.000647301 0.000372979 0.00152656 12.4509 7.17532 29.3639
1296 3 9.6 -67.3371 -21.7876 -51.8874 0.000628603 0.000180897 0.000462058 12.091 3.47927 8.88762
1299 3 9.6 -20.553 -71.9093 -11.4224 0.000179307 0.000657051 8.40756e-05 3.44866 12.638 1.61679
1303 3 9.6 -70.8537 -115.418 -84.3549 0.000678556 0.00107439 0.000700531 13.0517 20.6651 13.4737
1332 3 9.6 -25.3142 -27.4175 -176.84 0.000221452 0.000427999 0.0015589 4.25903 8.23428 29.984
1336 3 9.6 -16.1382 -0.298501 -165.87 0.000150256 -8.09214e-05 0.00151973 2.89005 -1.55793 29.2317
1337 3 9.6 -160.19 -60.9047 -61.5832 0.00139676 0.000591748 0.000593085 26.8657 11.3822 11.4076
1353 3 9.6 -30.131 -38.7989 -32.7095 0.000260949 0.000342888 0.00031111 5.01894 6.59528 5.98379
1354 3 9.6 -1.54659 -92.7763 -114.222 -2.79466e-05 0.000865849 0.00102253 -0.538107 16.6541 19.6672
1355 3 9.6 -62.1303 -105.129 -58.1219 0.000557076 0.000936838 0.000597951 10.7151 18.0193 11.5016
1370 3 9.6 -5.51568 -23.2224 -117.821 3.76639e-05 0.000243182 0.00104595 0.724495 4.67797 20.1179
1375 3 9.6 -50.5909 -36.6731 -154.101 0.000467192 0.000391444 0.00136613 8.98633 7.52939 26.2763
1378 3 9.6 -41.9688 -18.0115 -177.79 0.000507604 0.000157124 0.00152933 9.76529 3.02207 29.4156
1383 3 9.6 -49.0442 -59.6969 -16.3844 0.000443503 0.000530658 0.000129302 8.53041 10.2067 2.48687
1391 3 9.6 -7.16434 -83.2096 -128.468 0.00010407 0.000781799 0.00118428 2.00214 15.0378 22.7791
1392 3 9.6 -39.2943 -80.5989 -96.5275 0.000328797 0.000752202 0.000947984 6.32405 14.4683 18.2348
1412 3 9.6 -38.6739 -105.369 -97.368 0.000351007 0.00101766 0.000890449 6.75145 19.5745 17.1273
1422 3 9.6 -20.9968 -22.1298 -65.1055 0.00013762 0.000203089 0.000580333 2.64659 3.90645 11.1623
1424 3 9.6 -48.3468 -163.758 -21.2431 0.000405473 0.00145768 0.000214463 7.79845 28.0376 4.12518
1435 3 9.6 -4.3029 -163.3 -16.1615 8.97737e-05 0.00136011 0.000143769 1.72791 26.1598 2.76521
1444 3 9.6 -65.1296 -65.6856 -37.5043 0.000540216 0.00062526 0.000306455 10.3901 12.0267 5.894
1450 3 9.6 -93.262 -30.0982 -123.287 0.000782155 0.000267266 0.00105969 15.0435 5.14056 20.382
1455 3 9.6 -76.4409 -26.9834 -115.556 0.000712822 0.00021321 0.00106078 13.7108 4.10085 20.4036
1458 3 9.6 -37.3218 -47.7346 -21.3193 0.000291051 0.00043499 0.000202331 5.59767 8.36685 3.89152
1460 3 9.6 -149.891 -8.68563 -77.9868 0.0013716 7.95089e-05 0.000715271 26.3823 1.5294 13.758
1469 3 9.6 -60.8367 -98.8925 -18.4615 0.000530523 0.000868685 0.000124511 10.2042 16.7086 2.39481
1470 3 9.6 -118.17 -66.022 -88.6692 0.00107287 0.000642021 0.000847196 20.6361 12.3493 16.2958
1475 3 9.6 -57.3632 -134.571 -33.2339 0.000508249 0.00120836 0.000317495 9.77583 23.2422 6.10689
1477 3 9.6 -83.6386 -24.6546 -56.2399 0.000751687 0.000192395 0.000533033 14.4581 3.7001 10.2528
1487 3 9.6 -42.0629 -79.1839 -160.385 0.000357191 0.000718728 0.00139896 6.87022 13.8241 26.9078
1488 3 9.6 -114.729 -30.9993 -77.7943 0.00104266 0.000276113 0.000680785 20.0551 5.31056 13.0945
1490 3 9.6 -103.489 -86.3957 -30.6391 0.000981846 0.000812973 0.00029453 18.8859 15.6371 5.66472
1500 3 9.6 -21.6188 -118.813 -94.2094 0.000208991 0.00102877 0.000842516 4.01952 19.7874 16.2054
1518 3 9.6 -3.05687 -12.756 -172.168 -3.11058e-05 5.7979e-05 0.00157849 -0.598221 1.1146 30.3621
1519 3 9.6 -24.1706 -136.512 -75.2419 0.000181964 0.00117166 0.000656558 3.49954 22.5357 12.6284
1524 3 9.6 -148.34 -69.8319 -56.8135 0.0013527 0.000682845 0.000565804 26.0187 13.1341 10.8832
1526 3 9.6 -52.3073 -90.896 -25.321 0.000479923 0.000805572 0.000254529 9.23106 15.4945 4.89544
1532 3 9.6 -17.4905 -76.2234 -53.1985 0.000153017 0.000716532 0.00042549 2.94321 13.7823 8.18319
1536 3 9.6 -3.56243 -34.7628 -156.308 7.94823e-05 0.000415641 0.00135464 1.52969 7.99546 26.0549
1545 3 9.6 -71.2278 -58.7772 -159.205 0.000615475 0.000521723 0.00137463 11.8381 10.035 26.4397
1547 3 9.6 -72.9525 -39.8795 -61.2792 0.000647436 0.000323445 0.000542697 12.4527 6.22104 10.4386
1562 3 9.6 -79.5251 -125.852 -16.5821 0.000728793 0.00113211 0.000138708 14.018 21.7754 2.6678
1566 3 9.6 -19.1347 -130.187 -108.483 0.000153735 0.00109048 0.00100394 2.95704 20.974 19.3105
1567 3 9.6 -93.1212 -95.0511 -97.835 0.000864249 0.00082303 0.000905999 16.6236 15.8299 17.4264
1568 3 9.6 -31.2017 -66.7222 -24.7788 0.000329567 0.000570017 0.000259561 6.33973 10.9639 4.99282
1575 3 9.6 -30.0009 -95.5274 -7.46989 0.000256097 0.000870086 1.84207e-05 4.92544 16.7357 0.353717
1580 3 9.6 -118.977 -102.935 -33.0733 0.00109198 0.000934261 0.000373923 21.0039 17.9699 7.19308
1582 3 9.6 -23.9569 -157.386 -81.163 0.000184616 0.00137525 0.000733164 3.55059 26.4521 14.102
1584 3 9.6 -65.0359 -149.131 -48.6822 0.000579087 0.00133402 0.000470475 11.1381 25.6592 9.04951
1588 3 9.6 -40.0784 -29.8784 -136.328 0.000416445 0.000324126 0.00117856 8.01032 6.23483 22.6683
1593 3 9.6 -70.4044 -84.8062 -131.662 0.000623366 0.000844056 0.00123491 11.99 16.2358 23.7529
1604 3 9.6 -83.5635 -149.95 -0.405186 0.00080995 0.00133481 1.23613e-05 15.5791 25.6742 0.237254
1610 3 9.6 -60.0215 -53.9187 -47.6962 0.000457294 0.000482351 0.000434288 8.79501 9.27783 8.35305
1611 3 9.6 -58.7878 -0.551138 -143.502 0.000611053 -2.30836e-05 0.00126833 11.754 -0.44398 24.3958
1628 3 9.6 -43.4621 -67.5695 -40.0683 0.000415614 0.000592122 0.000356453 7.99416 11.3891 6.85596
1644 3 9.6 -53.1352 -62.2591 -156.587 0.000454051 0.000619862 0.00136802 8.73332 11.9231 26.3123
1645 3 9.6 -41.1711 -97.9216 -5.1597 0.000434957 0.000923099 -7.78845e-06 8.36695 17.7556 -0.150351
1655 3 9.6 -78.6463 -78.0887 -76.3399 0.000676586 0.000738076 0.000683474 13.0135 14.1965 13.1462
1670 3 9.6 -88.8173 -122.178 -49.3547 0.000815823 0.00112675 0.000498929 15.6918 21.6724 9.59691
1672 3 9.6 -63.8609 -88.4672 -95.4525 0.000584693 0.000748616 0.000890306 11.2462 14.3988 17.125
1674 3 9.6 -145.846 -3.06848 -14.4447 0.00126378 2.97192e-06 0.00011348 24.3077 0.0570024 2.18239
1679 3 9.6 -125.433 -47.2007 -90.3834 0.00113761 0.000418279 0.000867521 21.8811 8.04546 16.6868
1680 3 9.6 -90.7514 -31.2771 -44.3102 0.00087099 0.000276258 0.000380852 16.7534 5.31358 7.32539
1685 3 9.6 -91.1036 -13.7118 -63.5658 0.000839032 7.72257e-05 0.000573577 16.1386 1.48505 11.0323
1688 3 9.6 -11.1083 -77.8277 -34.9947 0.000151248 0.000751592 0.00030919 2.91016 14.4578 5.94738
1690 3 9.6 -58.4458 -116.013 -45.665 0.00058058 0.00104054 0.000483553 11.1683 20.014 9.30146
1697 3 9.6 -117.25 -106.882 -5.51695 0.00107051 0.000990287 0.000118126 20.5907 19.0478 2.27268
1704 3 9.6 -113.545 -34.4201 -51.6171 0.00100762 0.000245258 0.000457523 19.3808 4.71687 8.8
1709 3 9.6 -67.9859 -81.0197 -51.1742 0.000570686 0.000767352 0.000493495 10.9764 14.7599 9.49233
1715 3 9.6 -139.51 -104.892 -17.446 0.00129277 0.000987744 0.000176375 24.866 18.9987 3.39264
1722 3 9.6 -125.145 -12.6259 -16.391 0.00109987 0.000136007 0.000143333 21.1552 2.61607 2.75689
1723 3 9.6 -27.2645 -121.78 -77.0507 0.000232715 0.00105014 0.000740416 4.47566 20.1983 14.2414
1736 3 9.6 -86.4044 -6.85301 -104.934 0.000697494 7.0893e-05 0.00102324 13.4147 1.36362 19.682
1745 3 9.6 -22.9196 -4.21379 -106.382 0.0002323 6.732e-05 0.000926946 4.46873 1.29505 17.8287
1751 3 9.6 -38.6245 -83.4708 -51.8982 0.000426164 0.000790446 0.000488424 8.19738 15.2046 9.39451
1761 3 9.6 -89.6205 -116.684 -107.262 0.000759063 0.00103269 0.00102599 14.5993 19.8633 19.7349
1762 3 9.6 -1.91796 -175.445 -47.8535 1.82333e-05 0.00152162 0.000409784 0.350555 29.2671 7.8817
1775 3 9.6 -25.113 -60.6967 -17.0328 0.000229725 0.000458097 9.83454e-05 4.41871 8.81029 1.89103
1776 3 9.6 -105.583 -64.472 -14.2751 0.000947189 0.000564681 0.000162078 18.2189 10.861 3.11755
1779 3 9.6 -72.841 -78.5976 -26.1055 0.000578893 0.000721593 0.000199456 11.1336 13.8794 3.83597
1782 3 9.6 -154.587 -29.4782 -49.766 0.00138427 0.000259148 0.000427318 26.6255 4.98461 8.21907
1785 3 9.6 -65.1295 -48.8556 -2.70683 0.000570918 0.000397826 3.14891e-05 10.9813 7.65161 0.605695
1786 3 9.6 -112.471 -79.8042 -77.9172 0.00103279 0.00077998 0.000736664 19.8652 15.0029 14.1696
1816 3 9.6 -57.3153 -135.419 -106.602 0.000470792 0.00120591 0.00100148 9.05516 23.1947 19.2632
1826 3 9.6 -23.4099 -34.9582 -84.9821 0.000188146 0.000277306 0.000811497 3.61855 5.33355 15.609
1844 3 9.6 -128.872 -36.7307 -23.453 0.00112272 0.000237962 0.000177943 21.5946 4.57639 3.4226
1849 3 9.6 -59.2513 -166.573 -29.9154 0.00055885 0.00150195 0.000342333 10.7492 28.8895 6.5853
1876 3 9.6 -151.693 -29.4253 -99.5158 0.00134418 0.000262738 0.000820697 25.855 5.05343 15.7846
1879 3 9.6 -72.5028 -24.2443 -71.2532 0.000677145 0.000189209 0.0006361 13.0244 3.63908 12.2351
1883 3 9.6 -5.9742 -126.831 -29.3173 5.91076e-05 0.00109069 0.000297863 1.13747 20.9784 5.7293
1903 3 9.6 -114.13 -106.927 -23.4192 0.000987309 0.00100573 0.000197485 18.99 19.345 3.7981
1916 3 9.6 -69.5908 -2.73057 -166.943 0.000645573 -1.79746e-05 0.00145899 12.4174 -0.345932 28.0623
1917 3 9.6 -14.8067 -162.445 -43.8743 0.00014498 0.00140334 0.000401146 2.78876 26.9921 7.71587
1926 3 9.6 -109.646 -62.6926 -58.9756 0.000990646 0.000567877 0.000540336 19.0544 10.9228 10.393
1929 3 9.6 -100.234 -68.5822 -81.8888 0.000925503 0.000627907 0.000800242 17.8016 12.0775 15.3927
1939 3 9.6 -137.315 -98.5743 -51.215 0.00124182 0.000887667 0.000472286 23.8855 17.0736 9.08412
1940 3 9.6 -14.8402 -130.489 -91.7457 0.000125093 0.00111166 0.000822462 2.40597 21.3813 15.8195
1944 3 9.6 -15.2455 -43.5404 -147.484 0.000145657 0.000552637 0.0012775 2.80178 10.6309 24.5714
1954 3 9.6 -135.88 -117.533 -38.8921 0.00120252 0.00101612 0.000348915 23.1295 19.5442 6.71107
1955 3 9.6 -61.6129 -15.5095 -149.18 0.000563391 0.000123997 0.00127248 10.8365 2.38457 24.4748
1965 3 9.6 -38.7234 -57.6334 -167.419 0.000296932 0.000550789 0.00149256 5.71107 10.5941 28.7082
1966 3 9.6 -47.0084 -50.0203 -81.0823 0.000465841 0.000433625 0.000723716 8.96005 8.34022 13.9206
1969 3 9.6 -102.138 -22.3233 -150.684 0.000898397 0.000205963 0.00133095 17.2799 3.9617 25.5999
1972 3 9.6 -71.4706 -143.318 -5.47522 0.000666709 0.00125802 3.00347e-05 12.8242 24.1967 0.577546
1982 3 9.6 -110.297 -9.20701 -75.165 0.000983897 5.54602e-05 0.000627734 18.9246 1.06673 12.0736
1985 3 9.6 -66.3697 -163.405 -47.4025 0.000571994 0.00146678 0.000425414 11.0018 28.2126 8.18255
1986 3 9.6 -90.7158 -89.9373 -10.3378 0.000833697 0.000796602 6.94199e-05 16.0358 15.322 1.33522
1987 3 9.6 -26.5913 -37.9177 -164.06 0.000246789 0.000477612 0.00150178 4.74695 9.18742 28.886
1989 3 9.6 -159.367 -23.6769 -85.7987 0.00145457 0.000189589 0.000756157 27.9779 3.64679 14.5443
1990 3 9.6 -98.7658 -132.781 -10.959 0.000856877 0.00127503 0.000135579 16.4815 24.5247 2.60802
1998 3 9.6 -128.911 -84.6959 -69.4106 0.00117576 0.000789577 0.000722834 22.6154 15.1874 13.9042
2000 3 9.6 -46.3189 -125.664 -72.7955 0.000413371 0.00102398 0.000703597 7.95117 19.6948 13.533
2005 3 9.6 -148.174 -74.7564 -45.1375 0.00132369 0.000724437 0.000385409 25.4605 13.9348 7.41305
2006 3 9.6 -10.2505 -104.223 -67.3422 8.40257e-05 0.00100123 0.000638763 1.61619 19.2583 12.2864
2011 3 9.6 -36.7264 -116.451 -61.2072 0.000369172 0.00106538 0.000642974 7.10145 20.4929 12.3683
2017 3 9.6 -98.9958 -151.205 -33.8972 0.000881981 0.00131275 0.000279157 16.9642 25.2498 5.36942
2021 3 9.6 -52.391 -35.9168 -103.018 0.000430465 0.000338582 0.000945065 8.27937 6.51295 18.1778
2031 3 9.6 -54.4833 -95.8777 -147.257 0.000397358 0.000866491 0.00130398 7.64266 16.6667 25.0808
2036 3 9.6 -48.1735 -44.0041 -91.5499 0.000395959 0.000359584 0.000846212 7.61628 6.91621 16.2765
2061 3 9.6 -42.4816 -89.5153 -15.8509 0.000442501 0.000809445 0.000133086 8.51201 15.5692 2.55992
2082 3 9.6 -170.412 -55.2864 -53.7231 0.00147579 0.000533395 0.000485456 28.386 10.2598 9.33725
2086 3 9.6 -12.9662 -14.6603 -55.9526 9.01163e-05 0.000144878 0.000566298 1.73346 2.787 10.8934
2104 3 9.6 -174.706 -22.4644 -22.5994 0.00150667 0.000250387 0.000349815 28.9789 4.81665 6.72974
2107 3 9.6 -172.109 -55.9733 -8.77489 0.00155644 0.000544599 3.33053e-05 29.9373 10.4749 0.640668
2109 3 9.6 -20.8207 -53.3472 -124.046 0.000149499 0.000507847 0.00118487 2.87511 9.76828 22.7906
2120 3 9.6 -5.82443 -11.3924 -124.79 4.46525e-05 0.000116 0.00114533 0.858763 2.23148 22.0293
2155 3 9.6 -46.548 -111.465 -120.529 0.000332638 0.00105206 0.00109742 6.39763 20.236 21.1081
2160 3 9.6 -70.9882 -29.9737 -154.881 0.000598205 0.000363514 0.00133193 11.5052 6.9931 25.6172
2165 3 9.6 -37.6959 -22.4942 -71.5187 0.000377241 0.000239479 0.000665509 7.25639 4.60677 12.8008
2171 3 9.6 -68.3179 -17.5719 -127.327 0.000593692 0.000129013 0.00111508 11.4192 2.48123 21.4477
2181 3 9.6 -32.7733 -31.5493 -13.7622 0.000272531 0.000283209 4.87546e-05 5.24155 5.4474 0.937002
2190 3 9.6 -170.488 -29.3539 -54.151 0.00151816 0.000202732 0.000452003 29.2008 3.89938 8.69368
2194 3 9.6 -104.603 -48.3053 -22.0789 0.000950421 0.000422553 0.000175707 18.2809 8.12696 3.37925
2200 3 9.6 -69.4075 -129.917 -41.9177 0.000637886 0.00114149 0.000366584 12.2693 21.9559 7.05054
2210 3 9.6 -131.482 -29.4696 -107.858 0.00114061 0.000322656 0.0010245 21.9393 6.20661 19.7063
2211 3 9.6 -148.491 -20.8267 -3.54772 0.00125295 0.000170133 6.52796e-05 24.0989 3.27205 1.25588
2223 3 9.6 -106.822 -132.732 -31.4443 0.000996496 0.0012259 0.000274173 19.1672 23.5792 5.27352
2233 3 9.6 -81.9186 -60.7634 -64.1603 0.000731627 0.000602037 0.000660466 14.0727 11.5802 12.7042
2235 3 9.6 -108.805 -31.6576 -126.98 0.000996575 0.000301088 0.00107692 19.169 5.7914 20.7133
2236 3 9.6 -94.0239 -39.9333 -60.0467 0.000861511 0.000329163 0.000531715 16.5709 6.33104 10.2272
2240 3 9.6 -48.3706 -7.79962 -23.2169 0.000393924 5.31792e-05 0.000145549 7.57658 1.02231 2.79936
2243 3 9.6 -34.4161 -97.7348 -53.5133 0.000332391 0.000819952 0.000488364 6.39349 15.7699 9.39293
2246 3 9.6 -9.02105 -40.7466 -68.0366 2.24841e-05 0.000322918 0.000628205 0.431765 6.21084 12.0835
2261 3 9.6 -47.7255 -44.4391 -15.7488 0.000434936 0.000407196 8.59866e-05 8.36575 7.83244 1.65333
2263 3 9.6 -53.592 -25.7404 -110.373 0.000486023 0.000191682 0.00109448 9.34819 3.6866 21.0525
2264 3 9.6 -145.487 -87.7781 -7.59031 0.00129436 0.000852216 6.62954e-05 24.8962 16.392 1.27509
2288 3 9.6 -108.369 -124.634 -54.5776 0.00100632 0.00108774 0.000485532 19.3562 20.9215 9.33897
2298 3 9.6 -36.1408 -167.192 -50.9698 0.00035807 0.00148557 0.000497872 6.88729 28.5737 9.57636
2306 3 9.6 -21.8297 -104.405 -99.1522 0.00017618 0.0010096 0.000925461 3.3885 19.4202 17.8008
2340 3 9.6 -42.9599 -111.257 -42.5723 0.000394422 0.000907468 0.000430918 7.58637 17.4532 8.2889
2344 3 9.6 -61.9858 -86.7937 -147.154 0.000523998 0.000763825 0.00130951 10.0788 14.6913 25.1875
2355 3 9.6 -150.109 -61.5237 -78.0627 0.00133008 0.000627815 0.000711816 25.5832 12.0759 13.6912
2358 3 9.6 -80.7211 -107.97 -32.0229 0.000737464 0.00101934 0.000235953 14.1846 19.6069 4.53776
2363 3 9.6 -53.9239 -25.5539 -84.8772 0.000422415 0.00024387 0.000745699 8.12427 4.69076 14.3429
2377 3 9.6 -60.3826 -0.981895 -70.6945 0.000546314 -3.92651e-05 0.000628096 10.5077 -0.755764 12.0807
2391 3 9.6 -23.7817 -113.917 -110.96 0.000229336 0.00102227 0.0010582 4.41085 19.6627 20.3538
2399 3 9.6 -15.0725 -169.608 -77.6553 0.000121889 0.00148265 0.000618137 2.34431 28.5183 11.8889
2417 3 9.6 -84.9519 -32.7317 -85.118 0.000754482 0.000292234 0.000830061 14.5117 5.62098 15.9662
2430 3 9.6 -4.62166 -73.4821 -134.901 2.45231e-05 0.000600169 0.00125115 0.471834 11.5432 24.0652
2450 3 9.6 -1.91206 -42.0341 -88.8019 4.01068e-05 0.000371088 0.000779954 0.771227 7.1375 15.0019
2452 3 9.6 -9.59228 -184.62 -28.2508 0.000133892 0.00160385 0.000260366 2.57551 30.8491 5.00809
2471 3 9.6 -116.237 -29.3261 -109.814 0.000988432 0.000342052 0.00103226 19.0116 6.57992 19.8554
2481 3 9.6 -134.93 -46.6565 -17.8031 0.0012025 0.000358404 0.00011214 23.1295 6.89309 2.15651
2486 3 9.6 -113.785 -92.4485 -18.9131 0.000993256 0.000796256 0.000183259 19.1042 15.3152 3.52486
2491 3 9.6 -135.532 -12.1043 -7.5214 0.0011843 0.000108213 4.5006e-05 22.7791 2.08159 0.865622
2504 3 9.6 -103.513 -8.18178 -0.258496 0.00086234 1.61784e-05 6.07595e-05 16.5859 0.310372 1.16914
2508 3 9.6 -63.4391 -64.3145 -132.084 0.000481838 0.000510083 0.00120468 9.26693 9.80966 23.1715
2514 3 9.6 -123.638 -57.8858 -50.6897 0.00111238 0.000478871 0.00046763 21.3956 9.21057 8.99424
2521 3 9.6 -53.3021 -144.518 -90.1164 0.000567771 0.00127681 0.000810922 10.9214 24.5581 15.5975