ITEM: TIMESTEP
1800
ITEM: NUMBER OF ATOMS
6100
ITEM: BOX BOUNDS ff ff ff
-1.0000000000000000e+03 1.0000000000000000e+03
-1.0000000000000000e+03 1.0000000000000000e+03
-1.0000000000000000e+03 1.0000000000000000e+03
ITEM: ATOMS id type diameter x y z vx vy vz fx fy fz
3 1 7.68 -174.951 -23.02 -44.5096 0.000781532 7.2775e-05 0.000183288 15.387 1.4328 3.6086
10 1 7.68 -56.3756 -114.016 -93.5403 0.000213952 0.000531345 0.000421348 4.21228 10.4613 8.29562
20 1 7.68 -156.166 -37.6604 -90.2388 0.000679142 0.000185432 0.000391364 13.3712 3.65086 7.70528
25 1 7.68 -97.0696 -36.1091 -151.649 0.000454551 0.000154052 0.000664449 8.94941 3.03297 13.0819
30 1 7.68 -4.96324 -24.1032 -19.9996 3.81852e-05 0.000132374 2.28761e-05 0.751906 2.60633 0.45026
35 1 7.68 -109.827 -74.6894 -10.9263 0.000507918 0.000351032 6.75163e-05 10.0001 6.91126 1.32927
44 1 7.68 -150.801 -89.4865 -61.8712 0.000633834 0.000405439 0.000283321 12.4791 7.98239 5.5781
57 1 7.68 -47.9471 -113.445 -3.87509 0.000220155 0.00047226 2.65952e-05 4.3345 9.29791 0.52363
62 1 7.68 -116.148 -26.9621 -6.75538 0.000511293 0.000109268 5.61901e-05 10.0665 2.15131 1.10633
67 1 7.68 -28.0877 -70.3785 -127.211 8.82691e-05 0.000317729 0.000584042 1.73779 6.25553 11.4989
72 1 7.68 -87.7582 -130.153 -82.2966 0.000378215 0.000581611 0.000348159 7.44642 11.4509 6.8546
79 1 7.68 -9.9641 -130.504 -59.7037 2.71301e-05 0.000581354 0.000278965 0.534107 11.4458 5.49236
93 1 7.68 -163.999 -35.8581 -19.4004 0.000707566 0.000152202 0.000112727 13.9308 2.99655 2.2194
122 1 7.68 -74.6674 -76.836 -62.7806 0.000334426 0.000368707 0.000299572 6.58427 7.25926 5.89815
125 1 7.68 -57.1658 -20.2823 -167.513 0.000244583 0.000109505 0.000755836 4.81538 2.15594 14.8812
127 1 7.68 -79.7243 -32.1225 -13.2137 0.000353268 0.000105673 1.85902e-05 6.95527 2.08049 0.365946
149 1 7.68 -124.668 -114.147 -68.5894 0.000562882 0.000499734 0.000308333 11.0822 9.83887 6.07053
150 1 7.68 -68.9842 -106.137 -93.5568 0.000312945 0.00048467 0.0003903 6.16139 9.54237 7.68429
157 2 8.64 -61.8889 -75.449 -17.8157 0.000259086 0.000355752 6.28616e-05 7.26286 9.97275 1.76218
162 2 8.64 -13.8058 -108.167 -150.873 8.76966e-05 0.000442719 0.000652707 2.45836 12.4105 18.297
166 2 8.64 -37.9998 -31.9073 -119.976 0.000165976 0.000135932 0.000546706 4.65273 3.81052 15.3257
178 2 8.64 -94.4631 -18.1727 -102.322 0.000414219 0.000128141 0.000483531 11.6117 3.5923 13.5548
187 2 8.64 -32.5331 -106.074 -140.676 0.00015183 0.000457551 0.000607894 4.25619 12.8263 17.0408
193 2 8.64 -120.636 -60.5187 -108.924 0.00052735 0.000285535 0.000505008 14.783 8.00433 14.1567
208 2 8.64 -63.2586 -130.687 -57.1161 0.000287445 0.000593112 0.000312572 8.0578 16.6265 8.7624
215 2 8.64 -135.764 -9.17997 -51.687 0.000585542 1.78005e-05 0.000209085 16.4143 0.498954 5.86111
230 2 8.64 -95.3645 -59.1069 -46.7135 0.000457684 0.000264929 0.000222739 12.8303 7.42664 6.24397
237 2 8.64 -111.957 -17.3261 -27.0907 0.000501545 8.98161e-05 0.000108557 14.0597 2.51774 3.0431
253 2 8.64 -35.032 -145.576 -21.1024 0.00017737 0.000619157 8.79675e-05 4.97218 17.3566 2.46594
255 2 8.64 -36.2151 -41.2721 -52.4431 0.000177456 0.000129364 0.000183501 4.97482 3.62608 5.14372
256 2 8.64 -26.5314 -91.2097 -76.0766 0.000140934 0.000464665 0.000349206 3.95087 13.0261 9.78924
257 2 8.64 -28.2379 -143.098 -1.85294 0.000107543 0.00063969 4.83191e-05 3.01469 17.9323 1.35466
265 2 8.64 -61.4291 -117.355 -66.9176 0.00028873 0.000527444 0.000323608 8.09389 14.7857 9.07173
276 2 8.64 -130.795 -38.6657 -47.0784 0.000582505 0.000165682 0.00019856 16.3292 4.64446 5.56613
288 2 8.64 -116.124 -21.5967 -40.0553 0.000521272 9.57878e-05 0.000162087 14.6127 2.68518 4.54365
296 2 8.64 -32.361 -71.724 -88.7481 0.000128835 0.00035866 0.000440538 3.61158 10.0544 12.3497
305 2 8.64 -8.08919 -91.3781 -49.194 3.20077e-05 0.000453167 0.000227936 0.897281 12.7037 6.3897
307 2 8.64 -113.406 -114.589 -65.072 0.000505499 0.000512357 0.000295583 14.1705 14.3628 8.28601
315 2 8.64 -4.17166 -105.105 -102.888 4.99079e-06 0.000486714 0.000483184 0.139833 13.644 13.545
321 2 8.64 -49.2276 -109.601 -22.1937 0.000213186 0.000479558 6.73369e-05 5.97618 13.4433 1.88754
323 2 8.64 -57.7742 -30.58 -129.377 0.000241174 0.000129762 0.000578505 6.7607 3.63758 16.217
328 2 8.64 -92.2632 -66.0813 -36.907 0.00044313 0.000294389 0.000122794 12.4223 8.25258 3.44211
340 2 8.64 -103.317 -56.3631 -80.011 0.000449118 0.000265992 0.000387529 12.59 7.4566 10.8636
352 2 8.64 -73.7104 -6.27825 -60.9488 0.000345014 5.14768e-06 0.000270299 9.67172 0.144243 7.57719
360 2 8.64 -168.863 -12.7019 -65.518 0.000756073 1.83868e-05 0.000289906 21.1948 0.51537 8.12684
364 2 8.64 -147.293 -15.0779 -18.4578 0.000637015 8.90242e-05 8.45973e-05 17.8573 2.49564 2.37151
366 2 8.64 -18.0847 -62.5963 -165.688 9.69474e-05 0.000275885 0.000727162 2.7177 7.73372 20.3843
378 2 8.64 -20.2121 -12.9029 -83.035 6.90857e-05 9.527e-05 0.000372246 1.93657 2.67073 10.4351
381 2 8.64 -50.7201 -71.7196 -142.457 0.000199511 0.000328914 0.00064741 5.59275 9.2203 18.1487
394 2 8.64 -76.1529 -38.9247 -29.7805 0.000319272 0.000184999 7.72884e-05 8.94997 5.18613 2.1664
396 2 8.64 -36.7931 -76.9683 -72.717 0.000213231 0.000384266 0.000314336 5.9777 10.7723 8.81174
410 2 8.64 -128.969 -65.3738 -69.8729 0.000567361 0.000332671 0.000355747 15.9047 9.32569 9.97261
413 2 8.64 -30.2447 -53.3148 -4.1391 0.000127762 0.000204353 -1.41444e-05 3.58149 5.72849 -0.396578
431 2 8.64 -12.5843 -0.712591 -4.72311 6.68463e-05 -9.47431e-06 3.63853e-05 1.87394 -0.265622 1.02007
445 2 8.64 -60.2189 -79.9122 -123.671 0.000217632 0.000351823 0.000572925 6.10069 9.86269 16.0607
449 2 8.64 -31.2153 -45.0394 -107.75 0.000131464 0.000175863 0.000485043 3.68525 4.92978 13.5971
450 2 8.64 -43.9909 -176.747 -10.4014 0.000192824 0.000782632 4.87409e-05 5.40534 21.9394 1.36634
476 3 9.6 -9.81285 -1.30128 -71.7869 5.4093e-05 4.164e-06 0.00032247 2.08008 0.160101 12.4001
480 3 9.6 -30.7536 -4.32703 -127.819 0.00014765 1.66852e-05 0.000549282 5.6777 0.641601 21.1218
485 3 9.6 -134.66 -23.3393 -56.2268 0.000584244 7.92302e-05 0.000200053 22.4663 3.04644 7.69246
509 3 9.6 -89.7474 -152.268 -18.4273 0.000419431 0.000664035 8.92096e-05 16.1287 25.5346 3.43045
514 3 9.6 -23.7007 -73.542 -78.5917 7.58792e-05 0.000368974 0.000401473 2.91766 14.1887 15.4385
518 3 9.6 -138.311 -54.1438 -39.1306 0.000592823 0.000209915 0.000183096 22.7961 8.0719 7.04075
519 3 9.6 -79.6413 -93.8188 -4.36695 0.000348771 0.000421316 1.39954e-05 13.4115 16.2012 0.538129
521 3 9.6 -145.328 -54.6509 -96.9778 0.000630421 0.000270958 0.000430779 24.242 10.4194 16.565
529 3 9.6 -26.3379 -110.047 -66.3625 8.31965e-05 0.000504315 0.000374944 3.19892 19.3929 14.4186
530 3 9.6 -146.231 -46.8942 -63.9202 0.000664578 0.000243534 0.000301968 25.5556 9.36501 11.6117
552 3 9.6 -99.6122 -37.994 -87.1354 0.000446301 0.000173491 0.000449012 17.162 6.6714 17.2663
554 3 9.6 -51.3977 -34.7156 -49.3412 0.00021956 0.000162063 0.000229606 8.44274 6.23197 8.82915
561 3 9.6 -54.9106 -57.4261 -92.5501 0.0002559 0.00025017 0.000431621 9.8403 9.61987 16.5975
564 3 9.6 -75.9862 -140.916 -41.9548 0.000363737 0.000632248 0.000191388 13.9872 24.3123 7.35954
573 3 9.6 -67.551 -2.6559 -104.6 0.000292065 -1.96731e-05 0.000504879 11.231 -0.756663 19.4147
609 3 9.6 -102.95 -52.2323 -65.9279 0.000442607 0.00023994 0.000298436 17.0198 9.22661 11.476
626 3 9.6 -163.943 -28.0029 -35.9491 0.000728854 0.000118946 0.000150641 28.0272 4.57383 5.79258
627 3 9.6 -54.8353 -87.8435 -78.3538 0.000230549 0.000421781 0.000320227 8.86534 16.2191 12.3138
639 3 9.6 -46.849 -7.37631 -59.2169 0.000208709 1.56571e-05 0.000251564 8.02567 0.602078 9.67353
660 3 9.6 -148.718 -11.3651 -105.574 0.000653112 1.72131e-05 0.000484032 25.1146 0.661853 18.6128
669 3 9.6 -39.7992 -52.8812 -154.506 0.000159778 0.00027608 0.00068027 6.14398 10.6163 26.1588
689 3 9.6 -170.409 -29.1117 -12.1253 0.000712205 0.000142445 4.93733e-05 27.3867 5.47785 1.89849
697 3 9.6 -149.294 -6.11805 -30.4824 0.000665199 3.62083e-05 0.000141542 25.5794 1.39243 5.44282
722 3 9.6 -40.9163 -175.305 -35.3181 0.000196608 0.000772269 0.000178454 7.56031 29.6966 6.86227
724 3 9.6 -45.5496 -87.1197 -130.428 0.000167369 0.000394716 0.000608639 6.43574 15.1783 23.4044
726 3 9.6 -165.084 -41.4016 -75.1707 0.000698002 0.000199188 0.000349542 26.8407 7.65954 13.4413
731 3 9.6 -58.9211 -14.0529 -49.6705 0.000255091 2.35548e-05 0.000230133 9.8091 0.905661 8.84952
732 3 9.6 -3.33855 -38.1589 -8.46196 5.29971e-05 0.000150555 3.90505e-06 2.03813 5.78931 0.150066
738 3 9.6 -79.0021 -46.3865 -145.147 0.000328141 0.000250592 0.000663328 12.6182 9.63622 25.5075
742 3 9.6 -130.632 -94.8698 -19.7776 0.00060637 0.000429334 0.000123367 23.3173 16.5095 4.74411
758 3 9.6 -1.67642 -130.639 -101.175 -1.09614e-05 0.000522956 0.000447691 -0.421561 20.1093 17.2154
763 3 9.6 -65.6556 -137.276 -18.5951 0.000319443 0.00059933 8.44876e-05 12.2839 23.0464 3.24882
770 3 9.6 -74.7274 -1.66319 -90.8802 0.000322788 1.94177e-06 0.000404794 12.4123 0.0746702 15.5659
773 3 9.6 -33.3759 -99.0246 -114.595 0.000147373 0.000459604 0.000548911 5.667 17.6735 21.1077
781 3 9.6 -22.3465 -137.963 -22.8468 0.00010412 0.000586312 9.73549e-05 4.00379 22.5456 3.74372
784 3 9.6 -154.571 -93.627 -19.7065 0.000667476 0.000450709 0.000105754 25.6669 17.3315 4.06664
787 3 9.6 -49.9387 -97.8534 -57.8186 0.000244493 0.000422688 0.000279717 9.40176 16.2538 10.7563
788 3 9.6 -94.0898 -42.441 -29.6739 0.000455096 0.000152707 9.42383e-05 17.5004 5.87196 3.62347
827 3 9.6 -162.588 -23.4745 -67.3266 0.000718562 7.70179e-05 0.000306322 27.6314 2.96162 11.7792
828 3 9.6 -20.2816 -87.852 -15.3716 6.78785e-05 0.000387704 5.11072e-05 2.61012 14.9086 1.96517
829 3 9.6 -25.2134 -90.3311 -137.646 0.000118189 0.000414513 0.000632075 4.54476 15.9396 24.3055
846 3 9.6 -169.847 -43.084 -51.966 0.000742984 0.00017427 0.000217363 28.5705 6.70128 8.35839
863 3 9.6 -47.9765 -35.439 -22.9893 0.000206317 0.00014627 0.000107682 7.93368 5.62452 4.14077
896 3 9.6 -4.81572 -43.2945 -164.819 4.9448e-05 0.000276482 0.000727818 1.90168 10.6321 27.9874
901 3 9.6 -75.8605 -137.85 -77.0339 0.000334502 0.000618242 0.000338762 12.8628 23.7736 13.0266
903 3 9.6 -62.745 -32.5374 -32.1878 0.000272201 0.000139408 0.000116249 10.467 5.36069 4.47002
906 3 9.6 -76.888 -169.687 -21.5171 0.000361753 0.000728172 0.000121995 13.9108 28.001 4.69116
916 3 9.6 -119.053 -19.7392 -65.1327 0.000485189 8.0403e-05 0.000286898 18.6571 3.09176 11.0323
925 3 9.6 -76.8791 -50.3109 -56.7261 0.000351338 0.000225095 0.000261847 13.5103 8.65571 10.069
930 3 9.6 -78.1441 -99.9464 -112.381 0.000390181 0.000457359 0.000502718 15.0041 17.5871 19.3315
933 3 9.6 -123.905 -99.5629 -84.3797 0.000541327 0.000458414 0.000374924 20.816 17.6277 14.4172
936 3 9.6 -54.2944 -51.5067 -162.158 0.000247562 0.000223785 0.000734894 9.51969 8.60529 28.2593
968 3 9.6 -61.6363 -133.465 -95.872 0.000295101 0.000588727 0.000407222 11.3478 22.6387 15.659
969 3 9.6 -45.4816 -86.3112 -106.874 0.000191823 0.000412501 0.000516018 7.37621 15.8622 19.8429
972 3 9.6 -82.6883 -62.5659 -50.0022 0.000370726 0.000291495 0.000251025 14.2558 11.2091 9.65294
989 3 9.6 -149.654 -50.0269 -84.2351 0.000657773 0.000219468 0.000382728 25.2938 8.43937 14.7173
992 3 9.6 -111.941 -11.6153 -45.6979 0.000502466 2.04227e-05 0.000205794 19.3217 0.78525 7.91352
1007 3 9.6 -101.413 -53.157 -137.41 0.000451472 0.000266048 0.000623344 17.3608 10.2305 23.9699
1008 3 9.6 -94.0025 -50.8247 -37.9334 0.000447446 0.000230622 0.000162365 17.2062 8.8683 6.24365
1017 3 9.6 -18.204 -17.0369 -176.984 5.32759e-05 7.33174e-05 0.000795704 2.04842 2.81918 30.5979
1018 3 9.6 -79.6355 -46.3676 -132.845 0.000364226 0.000238202 0.000571835 14.0058 9.15985 21.9891
1019 3 9.6 -159.886 -14.7533 -48.7047 0.000717792 2.80164e-05 0.000212366 27.6018 1.07722 8.16618
1023 3 9.6 -79.9659 -66.9173 -129.491 0.000395434 0.000273737 0.000570479 15.2062 10.526 21.937
1028 3 9.6 -41.4354 -131.371 -62.4922 0.000179479 0.000601642 0.000287006 6.9016 23.1354 11.0364
1065 3 9.6 -97.4645 -102.287 -53.6928 0.000463975 0.000477631 0.000241418 17.8416 18.3667 9.28343
1077 3 9.6 -18.8028 -97.599 -88.9637 6.38544e-05 0.00046358 0.000386471 2.45531 17.8264 14.8611
1085 3 9.6 -26.941 -28.9262 -105.626 0.000115885 0.000130608 0.000469871 4.45616 5.02235 18.0684
1087 3 9.6 -94.6314 -57.7627 -100.208 0.000436877 0.000260196 0.000480921 16.7995 10.0055 18.4933
1109 3 9.6 -28.6235 -159.471 -69.9673 0.000141515 0.000722691 0.000285519 5.44181 27.7901 10.979
1121 3 9.6 -87.4297 -10.1643 -127.452 0.000381309 5.26965e-05 0.000543505 14.6628 2.02636 20.8996
1132 3 9.6 -1.72265 -70.0912 -66.326 -2.64248e-05 0.000311179 0.000331457 -1.0164 11.966 12.7458
1139 3 9.6 -135.755 -125.309 -2.27426 0.000611586 0.000530125 2.18031e-05 23.5177 20.3852 0.838422
1162 3 9.6 -64.8613 -152.097 -21.9141 0.000308858 0.000660958 0.000146636 11.8769 25.416 5.63894
1170 3 9.6 -77.65 -8.68834 -139.2 0.000321721 4.73251e-05 0.000610684 12.3712 1.81988 23.483
1210 3 9.6 -1.42434 -79.795 -119.119 -7.505e-06 0.000338694 0.000505228 -0.288741 13.0239 19.4277
1215 3 9.6 -29.5154 -14.205 -69.7324 0.000118649 5.49011e-05 0.000301914 4.56235 2.11119 11.6097
1218 3 9.6 -39.4064 -23.5459 -155.997 0.000201422 0.000120897 0.000686591 7.74562 4.64894 26.4019
1222 3 9.6 -117.846 -40.2785 -129.801 0.00055631 0.000185916 0.000566987 21.3922 7.14919 21.8027
1227 3 9.6 -16.2208 -2.17623 -27.9169 7.75589e-05 3.90282e-06 8.57229e-05 2.9824 0.15001 3.29622
1228 3 9.6 -78.0591 -78.2854 -95.6384 0.000369069 0.000350317 0.000444727 14.1922 13.471 17.1014
1248 3 9.6 -45.2661 -152.86 -90.5106 0.000210896 0.000690121 0.000421578 8.10975 26.5379 16.2112
1249 3 9.6 -61.6914 -46.9314 -132.932 0.000259937 0.000221543 0.000589321 9.99547 8.51923 22.6616
1259 3 9.6 -75.5289 -30.5075 -166.914 0.000323583 0.000186441 0.000763118 12.4431 7.16966 29.3451
1296 3 9.6 -67.3576 -21.7935 -51.9025 0.000314239 9.04323e-05 0.000230982 12.0837 3.47742 8.88216
1299 3 9.6 -20.5588 -71.9307 -11.4252 8.96376e-05 0.000328462 4.2033e-05 3.44685 12.6306 1.61624
1303 3 9.6 -70.8758 -115.453 -84.3777 0.000339211 0.000537088 0.000350203 13.0439 20.653 13.4665
1332 3 9.6 -25.3214 -27.4314 -176.89 0.000110709 0.000213939 0.000779305 4.25706 8.22723 29.967
1336 3 9.6 -16.1431 -0.295869 -165.919 7.51138e-05 -4.04386e-05 0.000759712 2.88839 -1.55538 29.2139
1337 3 9.6 -160.235 -60.9239 -61.6025 0.000698246 0.000295814 0.000296484 26.8501 11.3752 11.4009
1353 3 9.6 -30.1395 -38.8101 -32.7197 0.000130452 0.00017141 0.000155527 5.01629 6.59136 5.98052
1354 3 9.6 -1.54568 -92.8044 -114.255 -1.3965e-05 0.000432839 0.000511168 -0.537148 16.6443 19.6562
1355 3 9.6 -62.1484 -105.159 -58.1414 0.000278483 0.000468329 0.000298913 10.7087 18.009 11.4944
1370 3 9.6 -5.5169 -23.2303 -117.855 1.88277e-05 0.000121562 0.000522876 0.72401 4.67465 20.1065
1375 3 9.6 -50.6061 -36.6859 -154.146 0.000233549 0.000195682 0.000682933 8.98086 7.52474 26.2612
1378 3 9.6 -41.9853 -18.0166 -177.84 0.000253735 7.85476e-05 0.000764516 9.7575 3.02042 29.3984
1383 3 9.6 -49.0586 -59.7142 -16.3886 0.000221709 0.000265279 6.464e-05 8.52551 10.2009 2.48561
1391 3 9.6 -7.16772 -83.235 -128.506 5.20209e-05 0.00039082 0.000592019 2.0005 15.0286 22.7654
1392 3 9.6 -39.305 -80.6233 -96.5583 0.000164368 0.000376026 0.00047389 6.32052 14.4596 18.2231
1412 3 9.6 -38.6853 -105.403 -97.397 0.000175469 0.000508728 0.000445137 6.74745 19.5626 17.1172
1422 3 9.6 -21.0012 -22.1364 -65.1244 6.88009e-05 0.000101523 0.000290111 2.64554 3.90399 11.1558
1424 3 9.6 -48.36 -163.805 -21.25 0.000202702 0.000728695 0.000107209 7.79452 28.0211 4.12262
1435 3 9.6 -4.30582 -163.345 -16.1661 4.48667e-05 0.000679934 7.18713e-05 1.72558 26.1457 2.76369
1444 3 9.6 -65.1472 -65.706 -37.5142 0.000270061 0.000312567 0.000153202 10.3847 12.0194 5.89108
1450 3 9.6 -93.2874 -30.1069 -123.321 0.000391008 0.000133608 0.000529742 15.0355 5.13769 20.3705
1455 3 9.6 -76.4641 -26.9903 -115.591 0.00035634 0.000106586 0.000530283 13.7026 4.09858 20.3914
1458 3 9.6 -37.3313 -47.7487 -21.3259 0.000145502 0.000217451 0.000101148 5.59496 8.36184 3.88946
1460 3 9.6 -149.936 -8.68821 -78.0101 0.000685665 3.97457e-05 0.000357564 26.3664 1.5284 13.7497
1469 3 9.6 -60.8539 -98.9207 -18.4656 0.000265211 0.000434259 6.22438e-05 10.1983 16.6988 2.39349
1470 3 9.6 -118.204 -66.0429 -88.6968 0.000536331 0.000320944 0.00042351 20.6239 12.3416 16.2857
1475 3 9.6 -57.3797 -134.61 -33.2442 0.000254075 0.000604063 0.000158716 9.77012 23.2285 6.10323
1477 3 9.6 -83.663 -24.6609 -56.2572 0.000375771 9.61838e-05 0.000266462 14.4498 3.6985 10.2465
1487 3 9.6 -42.0745 -79.2073 -160.43 0.000178562 0.000359296 0.00069935 6.86634 13.8162 26.8925
1488 3 9.6 -114.763 -31.0083 -77.8165 0.000521227 0.000138033 0.000340325 20.0432 5.30779 13.0868
1490 3 9.6 -103.521 -86.4222 -30.6487 0.000490821 0.000406406 0.00014724 18.8741 15.6278 5.66183
1500 3 9.6 -21.6256 -118.846 -94.2368 0.000104478 0.000514291 0.000421174 4.01749 19.7763 16.1957
1518 3 9.6 -3.05586 -12.7579 -172.219 -1.55507e-05 2.89896e-05 0.000789082 -0.597961 1.11461 30.3434
1519 3 9.6 -24.1765 -136.551 -75.2633 9.09681e-05 0.000585721 0.000328216 3.49796 22.523 12.6211
1524 3 9.6 -148.384 -69.8541 -56.8319 0.000676213 0.000341356 0.000282844 26.003 13.1264 10.8765
1526 3 9.6 -52.3229 -90.9222 -25.3293 0.000239914 0.000402708 0.000127242 9.22561 15.4856 4.89286
1532 3 9.6 -17.4955 -76.2467 -53.2124 7.64936e-05 0.000358194 0.000212712 2.94147 13.7739 8.17935
1536 3 9.6 -3.56501 -34.7763 -156.352 3.97246e-05 0.000207771 0.000677193 1.52778 7.98979 26.0404
1545 3 9.6 -71.2479 -58.7942 -159.25 0.000307679 0.000260811 0.000687184 11.8314 10.0291 26.4247
1547 3 9.6 -72.9736 -39.8901 -61.2969 0.000323658 0.000161693 0.000271294 12.4458 6.21765 10.4323
1562 3 9.6 -79.5488 -125.889 -16.5866 0.000364325 0.000565942 6.93423e-05 14.0097 21.7626 2.66642
1566 3 9.6 -19.1397 -130.223 -108.516 7.68523e-05 0.000545139 0.00050187 2.95526 20.9625 19.2988
1567 3 9.6 -93.1494 -95.0779 -97.8645 0.000432037 0.00041144 0.00045291 16.6135 15.8213 17.4161
1568 3 9.6 -31.2124 -66.7408 -24.7873 0.000164745 0.000284953 0.000129752 6.33522 10.9575 4.98952
1575 3 9.6 -30.0092 -95.5557 -7.47049 0.000128028 0.000434956 9.21435e-06 4.92303 16.7257 0.354178
1580 3 9.6 -119.013 -102.966 -33.0855 0.000545882 0.00046704 0.000186916 20.9913 17.9594 7.18785
1582 3 9.6 -23.9629 -157.431 -81.1868 9.22934e-05 0.000687491 0.00036651 3.54893 26.4366 14.0937
1584 3 9.6 -65.0547 -149.174 -48.6975 0.00028949 0.000666877 0.000235189 11.1319 25.6439 9.04396
1588 3 9.6 -40.092 -29.8889 -136.367 0.00020818 0.000162027 0.000589173 8.00534 6.23065 22.6557
1593 3 9.6 -70.4246 -84.8337 -131.703 0.000311622 0.000421937 0.000617334 11.983 16.2253 23.7388
1604 3 9.6 -83.5899 -149.994 -0.405589 0.000404894 0.000667273 6.18436e-06 15.5697 25.6591 0.237685
1610 3 9.6 -60.0364 -53.9343 -47.7104 0.000228609 0.000241128 0.000217104 8.79069 9.27228 8.34839
1611 3 9.6 -58.8077 -0.550387 -143.543 0.000305459 -1.15397e-05 0.000634036 11.7462 -0.443741 24.3811
1628 3 9.6 -43.4756 -67.5888 -40.0799 0.000207766 0.000296003 0.000178194 7.98938 11.3824 6.85216
1644 3 9.6 -53.15 -62.2793 -156.632 0.000226982 0.000309866 0.00068388 8.72829 11.9156 26.2976
1645 3 9.6 -41.1853 -97.9517 -5.15945 0.000217428 0.000461456 -3.88815e-06 8.36113 17.7448 -0.14965
1655 3 9.6 -78.6683 -78.1127 -76.3621 0.000338229 0.000368966 0.00034167 13.0061 14.1881 13.1385
1670 3 9.6 -88.8438 -122.215 -49.371 0.000407832 0.000563265 0.000249412 15.6826 21.6596 9.59091
1672 3 9.6 -63.8799 -88.4915 -95.4814 0.00029229 0.000374239 0.000445061 11.2396 14.3908 17.1144
1674 3 9.6 -145.887 -3.06857 -14.4484 0.00063177 1.48724e-06 5.67322e-05 24.2938 0.0571497 2.18148
1679 3 9.6 -125.47 -47.2144 -90.4116 0.000568696 0.000209097 0.00043367 21.8684 8.0406 16.6764
1680 3 9.6 -90.7797 -31.2861 -44.3226 0.000435406 0.000138103 0.00019039 16.7431 5.31054 7.32117
1685 3 9.6 -91.1309 -13.7143 -63.5844 0.000419431 3.86086e-05 0.000286734 16.1288 1.48456 11.0259
1688 3 9.6 -11.1132 -77.8521 -35.0047 7.55993e-05 0.00037571 0.000154562 2.90733 14.4478 5.94356
1690 3 9.6 -58.4647 -116.047 -45.6807 0.000290222 0.000520172 0.000241723 11.1604 20.0025 9.2953
1697 3 9.6 -117.285 -106.914 -5.52079 0.00053515 0.000495044 5.9046e-05 20.5785 19.0363 2.27068
1704 3 9.6 -113.578 -34.428 -51.632 0.00050371 0.00012261 0.000228718 19.3695 4.71469 8.79503
1709 3 9.6 -68.0044 -81.0446 -51.1902 0.000285291 0.000383597 0.000246697 10.9704 14.7508 9.48647
1715 3 9.6 -139.552 -104.924 -17.4517 0.000646258 0.000493775 8.81682e-05 24.8511 18.9875 3.39044
1722 3 9.6 -125.181 -12.6303 -16.3956 0.000549831 6.79894e-05 7.1653e-05 21.143 2.61446 2.75531
1723 3 9.6 -27.272 -121.815 -77.0748 0.00011634 0.000524972 0.000370136 4.47357 20.187 14.2331
1736 3 9.6 -86.4271 -6.85531 -104.967 0.00034869 3.54392e-05 0.000511512 13.4081 1.36278 19.6697
1745 3 9.6 -22.9272 -4.21598 -106.412 0.000116122 3.36515e-05 0.000463387 4.46546 1.29407 17.8188
1751 3 9.6 -38.6384 -83.4965 -51.9141 0.000213036 0.000395138 0.000244164 8.19214 15.1947 9.38903
1761 3 9.6 -89.6452 -116.717 -107.296 0.000379465 0.000516239 0.000512891 14.5916 19.8514 19.7227
1762 3 9.6 -1.91856 -175.495 -47.8668 9.11637e-06 0.00076066 0.000204854 0.35052 29.2502 7.87735
1775 3 9.6 -25.1204 -60.7116 -17.036 0.000114839 0.000229012 4.91688e-05 4.41602 8.80615 1.89058
1776 3 9.6 -105.613 -64.4903 -14.2804 0.000473499 0.000282288 8.10222e-05 18.2079 10.8549 3.11563
1779 3 9.6 -72.8598 -78.621 -26.112 0.0002894 0.000360726 9.97126e-05 11.1283 13.8712 3.83421
1782 3 9.6 -154.632 -29.4867 -49.7799 0.000692001 0.000129548 0.000213618 26.61 4.98163 8.21439
1785 3 9.6 -65.1481 -48.8685 -2.70785 0.000285403 0.000198877 1.57413e-05 10.9748 7.6475 0.605316
1786 3 9.6 -112.505 -79.8295 -77.9412 0.000516289 0.000389909 0.000368257 19.8533 14.9936 14.1609
1816 3 9.6 -57.3306 -135.458 -106.634 0.000235352 0.000602839 0.000500639 9.05011 23.1814 19.2515
1826 3 9.6 -23.4161 -34.9672 -85.0085 9.40576e-05 0.000138628 0.000405665 3.61679 5.33071 15.5994
1844 3 9.6 -128.909 -36.7385 -23.4588 0.000561251 0.000118964 8.89546e-05 21.5822 4.57445 3.42063
1849 3 9.6 -59.2695 -166.621 -29.9266 0.00027937 0.000750827 0.000171126 10.7428 28.8722 6.58061
1876 3 9.6 -151.736 -29.4338 -99.5425 0.000671953 0.000131345 0.000410278 25.8392 5.05066 15.7765
1879 3 9.6 -72.5249 -24.2505 -71.2739 0.000338507 9.4588e-05 0.000317987 13.0168 3.6372 12.2278
1883 3 9.6 -5.97613 -126.866 -29.327 2.95424e-05 0.000545243 0.000148901 1.13616 20.9665 5.72583
1903 3 9.6 -114.162 -106.96 -23.4257 0.000493561 0.000502762 9.87274e-05 18.9792 19.3332 3.79633
1916 3 9.6 -69.6118 -2.72999 -166.99 0.000322722 -8.98356e-06 0.000729358 12.4099 -0.345502 28.0464
1917 3 9.6 -14.8115 -162.491 -43.8873 7.24746e-05 0.000701537 0.000200533 2.78695 26.9766 7.71126
1926 3 9.6 -109.678 -62.7111 -58.9931 0.000495227 0.000283883 0.000270115 19.0433 10.9164 10.3869
1929 3 9.6 -100.264 -68.6027 -81.9148 0.00046266 0.000313892 0.000400038 17.791 12.0703 15.3831
1939 3 9.6 -137.356 -98.6031 -51.2303 0.000620793 0.000443748 0.000236097 23.8717 17.0637 9.07881
1940 3 9.6 -14.8443 -130.526 -91.7724 6.25351e-05 0.00055573 0.000411151 2.40468 21.3697 15.8103
1944 3 9.6 -15.2502 -43.5584 -147.525 7.2813e-05 0.000276252 0.000638631 2.79997 10.6232 24.5576
1954 3 9.6 -135.919 -117.566 -38.9035 0.000601148 0.000507962 0.000174424 23.1163 19.533 6.70724
1955 3 9.6 -61.6313 -15.5135 -149.221 0.00028164 6.19907e-05 0.000636118 10.8301 2.38366 24.461
1965 3 9.6 -38.7331 -57.6513 -167.468 0.00014844 0.00027534 0.00074614 5.70799 10.5879 28.6918
1966 3 9.6 -47.0236 -50.0344 -81.1059 0.000232876 0.000216773 0.000361784 8.95492 8.33565 13.912
1969 3 9.6 -102.168 -22.33 -150.728 0.000449113 0.00010296 0.000665348 17.27 3.95924 25.5851
1972 3 9.6 -71.4923 -143.358 -5.4762 0.000333285 0.000628892 1.50159e-05 12.8162 24.1831 0.577378
1982 3 9.6 -110.329 -9.20881 -75.1855 0.000491853 2.77248e-05 0.000313811 18.9136 1.06612 12.0671
1985 3 9.6 -66.3883 -163.453 -47.4163 0.000285943 0.000733245 0.000212665 10.9955 28.196 8.17777
1986 3 9.6 -90.743 -89.9632 -10.34 0.000416766 0.000398224 3.47034e-05 16.0262 15.3132 1.33447
1987 3 9.6 -26.5993 -37.9332 -164.109 0.000123369 0.000238751 0.00075074 4.74404 9.18107 28.8688
1989 3 9.6 -159.414 -23.6831 -85.8233 0.000727139 9.47742e-05 0.000378004 27.9612 3.64446 14.5357
1990 3 9.6 -98.7937 -132.823 -10.9634 0.000428355 0.000637386 6.77737e-05 16.4718 24.5099 2.60621
1998 3 9.6 -128.95 -84.7216 -69.4341 0.000587764 0.000394707 0.000361337 22.6018 15.1781 13.895
2000 3 9.6 -46.3323 -125.697 -72.8184 0.000206643 0.0005119 0.000351732 7.94625 19.6842 13.5253
2005 3 9.6 -148.218 -74.78 -45.15 0.000661716 0.000362141 0.000192668 25.4455 13.9258 7.40877
2006 3 9.6 -10.2532 -104.255 -67.3629 4.20046e-05 0.000500512 0.000319318 1.61523 19.2466 12.279
2011 3 9.6 -36.7385 -116.486 -61.2282 0.000184544 0.000532575 0.000321413 7.09655 20.4798 12.3598
2017 3 9.6 -99.0245 -151.248 -33.9062 0.000440906 0.000656251 0.000139551 16.9544 25.2352 5.36627
2021 3 9.6 -52.405 -35.9278 -103.049 0.000215194 0.000169252 0.000472439 8.27491 6.50852 18.1671
2031 3 9.6 -54.4962 -95.9059 -147.3 0.000198643 0.000433158 0.000651864 7.63849 16.6566 25.0665
2036 3 9.6 -48.1864 -44.0158 -91.5774 0.000197938 0.000179759 0.000423022 7.61153 6.91235 16.2668
2061 3 9.6 -42.496 -89.5417 -15.8552 0.0002212 0.000404643 6.65292e-05 8.50614 15.56 2.55832
2082 3 9.6 -170.46 -55.3037 -53.7389 0.000737752 0.000266642 0.000242683 28.3693 10.2535 9.332
2086 3 9.6 -12.9691 -14.665 -55.9711 4.50481e-05 7.24214e-05 0.000283084 1.7323 2.78496 10.8859
2104 3 9.6 -174.755 -22.4726 -22.6108 0.000753199 0.000125163 0.000174861 28.963 4.81315 6.72437
2107 3 9.6 -172.159 -55.991 -8.77597 0.000778067 0.000272248 1.66488e-05 29.9196 10.4689 0.640224
2109 3 9.6 -20.8255 -53.3637 -124.085 7.4739e-05 0.000253872 0.000592316 2.87389 9.76238 22.7768
2120 3 9.6 -5.82588 -11.3961 -124.827 2.23229e-05 5.7986e-05 0.000572555 0.858372 2.22985 22.0168
2155 3 9.6 -46.5588 -111.499 -120.565 0.000166291 0.000525928 0.000548607 6.3944 20.2239 21.0959
2160 3 9.6 -71.0077 -29.9856 -154.925 0.000299052 0.000181711 0.000665848 11.4995 6.98773 25.6039
2165 3 9.6 -37.7082 -22.502 -71.5404 0.00018858 0.000119711 0.000332688 7.2517 4.60346 12.7931
2171 3 9.6 -68.3372 -17.5761 -127.363 0.000296789 6.44962e-05 0.000557431 11.4126 2.48006 21.4353
2181 3 9.6 -32.7822 -31.5585 -13.7638 0.000136243 0.000141577 2.438e-05 5.23894 5.44416 0.93731
2190 3 9.6 -170.538 -29.3605 -54.1657 0.000758933 0.000101347 0.000225961 29.1838 3.89715 8.68895
2194 3 9.6 -104.634 -48.319 -22.0847 0.000475116 0.000211241 8.78401e-05 18.27 8.12284 3.37769
2200 3 9.6 -69.4283 -129.954 -41.9296 0.00031888 0.000570636 0.000183261 12.2621 21.9431 7.04694
2210 3 9.6 -131.519 -29.4801 -107.891 0.00057019 0.000161292 0.000512146 21.926 6.20239 19.6941
2211 3 9.6 -148.532 -20.8322 -3.54984 0.000626361 8.50533e-05 3.26308e-05 24.0857 3.27053 1.25484
2223 3 9.6 -106.854 -132.772 -31.4533 0.000498148 0.000612832 0.00013706 19.1557 23.5656 5.27046
2233 3 9.6 -81.9424 -60.783 -64.1818 0.000365739 0.000300956 0.000330163 14.0641 11.573 12.6961
2235 3 9.6 -108.837 -31.6674 -127.015 0.000498185 0.000150513 0.000538359 19.1572 5.78783 20.7018
2236 3 9.6 -94.052 -39.944 -60.064 0.000430668 0.000164551 0.000265805 16.5609 6.32756 10.2212
2240 3 9.6 -48.3834 -7.80135 -23.2217 0.000196927 2.65898e-05 7.2762e-05 7.57248 1.02234 2.79792
2243 3 9.6 -34.4269 -97.7615 -53.5292 0.000166162 0.000409909 0.000244138 6.38957 15.7622 9.38792
2246 3 9.6 -9.02178 -40.7571 -68.0571 1.12467e-05 0.00016143 0.000314038 0.432302 6.20753 12.076
2261 3 9.6 -47.7397 -44.4524 -15.7516 0.000217425 0.000203556 4.29905e-05 8.36081 7.82754 1.653
2263 3 9.6 -53.6078 -25.7466 -110.408 0.000242965 9.5825e-05 0.000547127 9.34288 3.68476 21.0393
2264 3 9.6 -145.529 -87.8058 -7.59247 0.000647056 0.000426023 3.31418e-05 24.8817 16.3822 1.27441
2288 3 9.6 -108.402 -124.67 -54.5934 0.000503062 0.000543766 0.000242718 19.3446 20.9097 9.33343
2298 3 9.6 -36.1525 -167.241 -50.986 0.000179 0.000742645 0.000248887 6.88321 28.5574 9.57064
2306 3 9.6 -21.8355 -104.438 -99.1823 8.80751e-05 0.000504687 0.000462639 3.38676 19.4074 17.7902
2340 3 9.6 -42.9727 -111.286 -42.5863 0.000197173 0.000453659 0.000215412 7.58203 17.4445 8.28352
2344 3 9.6 -62.0028 -86.8185 -147.197 0.000261948 0.000381842 0.000654631 10.0729 14.6831 25.1729
2355 3 9.6 -150.152 -61.5441 -78.0859 0.000664911 0.000313843 0.00035584 25.5683 12.0685 13.6833
2358 3 9.6 -80.745 -108.003 -32.0305 0.00036866 0.000509565 0.00011796 14.1764 19.5948 4.53583
2363 3 9.6 -53.9377 -25.5618 -84.9014 0.000211172 0.00012191 0.000372778 8.1202 4.68792 14.3347
2377 3 9.6 -60.4004 -0.980618 -70.7149 0.000273106 -1.96236e-05 0.00031399 10.5019 -0.754732 12.074
2391 3 9.6 -23.7892 -113.951 -110.994 0.000114648 0.000511034 0.000528997 4.40858 19.6512 20.3419
2399 3 9.6 -15.0765 -169.657 -77.6754 6.0934e-05 0.000741179 0.000309014 2.3431 28.5012 11.8826
2417 3 9.6 -84.9764 -32.7412 -85.145 0.00037717 0.000146088 0.000414944 14.5035 5.61763 15.9563
2430 3 9.6 -4.62246 -73.5016 -134.942 1.22577e-05 0.000300032 0.00062545 0.471391 11.5372 24.0509
2450 3 9.6 -1.91337 -42.0462 -88.8272 2.00514e-05 0.000185509 0.000389901 0.771002 7.13347 14.9931
2452 3 9.6 -9.59663 -184.672 -28.2593 6.69311e-05 0.000801767 0.000130156 2.57379 30.8309 5.00503
2471 3 9.6 -116.269 -29.3372 -109.847 0.000494122 0.000170985 0.000516021 19.0008 6.57521 19.8431
2481 3 9.6 -134.969 -46.6682 -17.8068 0.000601133 0.000179173 5.60633e-05 23.1158 6.88972 2.15574
2486 3 9.6 -113.817 -92.4744 -18.9191 0.000496535 0.000398053 9.16118e-05 19.0935 15.3065 3.52281
2491 3 9.6 -135.571 -12.1078 -7.52287 0.000592037 5.40941e-05 2.2499e-05 22.766 2.08017 0.865159
2504 3 9.6 -103.541 -8.1823 -0.260472 0.000431092 8.09553e-06 3.03692e-05 16.5769 0.311101 1.16793
2508 3 9.6 -63.4547 -64.3311 -132.124 0.000240881 0.000255006 0.000602218 9.26253 9.80557 23.1576