ITEM: TIMESTEP
7200
ITEM: NUMBER OF ATOMS
6100
ITEM: BOX BOUNDS ff ff ff
-1.0000000000000000e+03 1.0000000000000000e+03
-1.0000000000000000e+03 1.0000000000000000e+03
-1.0000000000000000e+03 1.0000000000000000e+03
ITEM: ATOMS id type diameter x y z vx vy vz fx fy fz
3 1 7.68 -174.697 -22.9963 -44.4499 0.00312916 0.000291365 0.000733837 15.4318 1.43672 3.61875
10 1 7.68 -56.3059 -113.843 -93.4032 0.000856538 0.00212753 0.00168702 4.22307 10.4931 8.31971
20 1 7.68 -155.945 -37.6 -90.1114 0.00271924 0.000742478 0.00156697 13.4106 3.66194 7.72768
25 1 7.68 -96.9217 -36.059 -151.433 0.00182009 0.000616728 0.00266037 8.97731 3.04066 13.1198
30 1 7.68 -4.9508 -24.0601 -19.9922 0.00015305 0.000530173 9.13937e-05 0.756482 2.61631 0.448622
35 1 7.68 -109.662 -74.5752 -10.9044 0.00203369 0.00140555 0.000270315 10.0299 6.93229 1.33296
44 1 7.68 -150.595 -89.3546 -61.779 0.00253776 0.00162333 0.00113436 12.5149 8.00562 5.59404
57 1 7.68 -47.8755 -113.291 -3.86643 0.000881523 0.00189075 0.000106507 4.34787 9.32317 0.525498
62 1 7.68 -115.982 -26.9265 -6.73709 0.00204713 0.000437518 0.000225052 10.0955 2.15791 1.11064
67 1 7.68 -28.0589 -70.2751 -127.021 0.000353304 0.00127215 0.00233857 1.74116 6.27374 11.5343
72 1 7.68 -87.6351 -129.963 -82.1833 0.00151436 0.0023287 0.0013939 7.46854 11.4842 6.8732
79 1 7.68 -9.95527 -130.315 -59.6129 0.000108568 0.00232765 0.00111697 0.534819 11.4789 5.50874
93 1 7.68 -163.769 -35.8086 -19.3637 0.00283299 0.000609321 0.000451347 13.9711 3.00412 2.22591
122 1 7.68 -74.5585 -76.716 -62.6831 0.001339 0.00147635 0.00119958 6.60342 7.28172 5.91729
125 1 7.68 -57.0862 -20.2466 -167.267 0.00097921 0.000438413 0.00302635 4.82835 2.16176 14.9256
127 1 7.68 -79.6094 -32.0881 -13.2077 0.00141448 0.000423057 7.43371e-05 6.97613 2.08588 0.365596
149 1 7.68 -124.485 -113.984 -68.489 0.00225368 0.00200081 0.00123451 11.114 9.86659 6.088
150 1 7.68 -68.8824 -105.979 -93.4298 0.00125306 0.00194065 0.00156264 6.18024 9.57155 7.70552
157 2 8.64 -61.8046 -75.3332 -17.7952 0.00103733 0.00142444 0.000251688 7.28355 10.0029 1.76727
162 2 8.64 -13.7772 -108.023 -150.661 0.000351109 0.00177247 0.00261323 2.46514 12.4441 18.3475
166 2 8.64 -37.9458 -31.863 -119.798 0.000664524 0.000544231 0.00218902 4.66582 3.82113 15.3721
178 2 8.64 -94.3283 -18.131 -102.165 0.00165845 0.000513227 0.00193611 11.6448 3.60626 13.5965
187 2 8.64 -32.4837 -105.925 -140.478 0.000607881 0.00183191 0.00243384 4.26797 12.8623 17.0885
193 2 8.64 -120.464 -60.4257 -108.76 0.00211141 0.00114326 0.002022 14.8253 8.02793 14.1982
208 2 8.64 -63.165 -130.494 -57.0144 0.00115083 0.00237473 0.00125167 8.07988 16.6747 8.79144
215 2 8.64 -135.574 -9.17418 -51.619 0.00234442 7.12243e-05 0.000837048 16.4618 0.49942 5.87605
230 2 8.64 -95.2155 -59.0207 -46.641 0.00183267 0.00106071 0.000891814 12.871 7.44756 6.26205
237 2 8.64 -111.794 -17.2969 -27.0554 0.00200813 0.000359564 0.000434605 14.1007 2.52406 3.05106
253 2 8.64 -34.9743 -145.375 -21.0737 0.000710198 0.00247898 0.000352179 4.98733 17.4061 2.47243
255 2 8.64 -36.1574 -41.23 -52.3834 0.000710773 0.000517579 0.000734384 4.9948 3.62862 5.15171
256 2 8.64 -26.4855 -91.0584 -75.963 0.000564382 0.00186075 0.00139823 3.96444 13.0701 9.81879
257 2 8.64 -28.2029 -142.89 -1.8372 0.000430556 0.00256129 0.000193619 3.02278 17.9856 1.36187
265 2 8.64 -61.3352 -117.183 -66.8123 0.00115605 0.00211183 0.0012958 8.1178 14.829 9.10057
276 2 8.64 -130.606 -38.6118 -47.0138 0.00233229 0.000663309 0.000794946 16.3769 4.65669 5.58096
288 2 8.64 -115.955 -21.5656 -40.0026 0.00208717 0.000383512 0.000648888 14.6565 2.69279 4.55503
296 2 8.64 -32.3191 -71.6072 -88.6047 0.000515831 0.00143623 0.00176408 3.62194 10.0879 12.3904
305 2 8.64 -8.07877 -91.2306 -49.1198 0.000128175 0.0018146 0.000912659 0.900331 12.7444 6.40894
307 2 8.64 -113.241 -114.423 -64.9758 0.00202396 0.0020514 0.00118349 14.2118 14.4043 8.31051
315 2 8.64 -4.17003 -104.946 -102.731 1.99047e-05 0.00194879 0.00193465 0.138601 13.6846 13.5853
321 2 8.64 -49.1582 -109.445 -22.1718 0.00085357 0.00192005 0.000269498 5.99357 13.4816 1.8907
323 2 8.64 -57.6957 -30.5377 -129.189 0.000965566 0.000519546 0.00231625 6.77903 3.64805 16.2639
328 2 8.64 -92.119 -65.9854 -36.867 0.00177445 0.00117874 0.000491514 12.4631 8.27751 3.44926
340 2 8.64 -103.171 -56.2765 -79.8849 0.0017982 0.00106512 0.00155172 12.6263 7.48089 10.8973
352 2 8.64 -73.5981 -6.27657 -60.8608 0.00138143 2.05457e-05 0.00108223 9.70073 0.143294 7.59894
360 2 8.64 -168.617 -12.6959 -65.4236 0.00302726 7.35505e-05 0.00116073 21.2573 0.515435 8.15014
364 2 8.64 -147.086 -15.0489 -18.4302 0.00255052 0.000356496 0.000338734 17.9091 2.50405 2.37877
366 2 8.64 -18.0532 -62.5065 -165.452 0.000388166 0.00110453 0.00291141 2.72562 7.7546 20.4424
378 2 8.64 -20.1897 -12.8719 -82.9139 0.000276516 0.000381509 0.00149045 1.94022 2.67977 10.4659
381 2 8.64 -50.6552 -71.6126 -142.247 0.000798735 0.00131688 0.00259218 5.60733 9.24619 18.2023
394 2 8.64 -76.049 -38.8645 -29.7554 0.00127822 0.000740822 0.00030923 8.97374 5.20351 2.16799
396 2 8.64 -36.7237 -76.8432 -72.6147 0.000854029 0.00153882 0.0012586 6.00098 10.8094 8.83818
410 2 8.64 -128.784 -65.2656 -69.7571 0.00227169 0.00133201 0.00142442 15.9521 9.35356 10.0028
413 2 8.64 -30.2031 -53.2483 -4.1437 0.000511522 0.000818113 -5.67099e-05 3.59149 5.74324 -0.399366
431 2 8.64 -12.5625 -0.715676 -4.71127 0.000267702 -3.79677e-05 0.000145779 1.8806 -0.267107 1.02508
445 2 8.64 -60.1481 -79.7977 -123.485 0.000871228 0.0014088 0.00229394 6.1154 9.89432 16.1079
449 2 8.64 -31.1725 -44.9822 -107.592 0.000526326 0.00070398 0.00194209 3.69517 4.94088 13.6376
450 2 8.64 -43.9282 -176.492 -10.3856 0.000771995 0.00313362 0.000195152 5.42005 22.0044 1.3703
476 3 9.6 -9.79525 -1.29993 -71.6819 0.000216587 1.66569e-05 0.00129111 2.08629 0.160127 12.4356
480 3 9.6 -30.7055 -4.3216 -127.64 0.000591186 6.68002e-05 0.00219914 5.69461 0.643315 21.1798
485 3 9.6 -134.47 -23.3135 -56.1617 0.00233924 0.000317035 0.000800739 22.5316 3.04972 7.70764
509 3 9.6 -89.6109 -152.052 -18.3983 0.00167941 0.00265869 0.000357195 16.1774 25.6083 3.44074
514 3 9.6 -23.676 -73.4219 -78.461 0.000303678 0.00147758 0.00160772 2.92233 14.2372 15.4911
518 3 9.6 -138.118 -54.0755 -39.071 0.00237353 0.000840405 0.000733125 22.8606 8.09346 7.06217
519 3 9.6 -79.5278 -93.6817 -4.36239 0.00139641 0.0016869 5.60013e-05 13.4497 16.2485 0.5387
521 3 9.6 -145.122 -54.5627 -96.8376 0.00252412 0.00108491 0.00172479 24.3122 10.4504 16.6134
529 3 9.6 -26.3109 -109.883 -66.2404 0.000332879 0.00201932 0.00150171 3.20158 19.4524 14.4745
530 3 9.6 -146.015 -46.8149 -63.8219 0.00266099 0.000975273 0.001209 25.6329 9.39788 11.6444
552 3 9.6 -99.4669 -37.9376 -86.9893 0.00178703 0.000694671 0.00179792 17.2148 6.69183 17.3204
554 3 9.6 -51.3262 -34.6629 -49.2665 0.000878968 0.000648926 0.000919291 8.46372 6.25146 8.85424
561 3 9.6 -54.8274 -57.3447 -92.4096 0.0010246 0.00100159 0.00172824 9.86933 9.64614 16.6482
564 3 9.6 -75.8678 -140.71 -41.8925 0.00145647 0.0025315 0.000766263 14.0312 24.3847 7.38005
573 3 9.6 -67.456 -2.66231 -104.435 0.00116941 -7.88935e-05 0.00202167 11.2643 -0.762474 19.4769
609 3 9.6 -102.806 -52.1542 -65.8308 0.00177208 0.000960712 0.00119493 17.0676 9.25406 11.5103
626 3 9.6 -163.706 -27.9642 -35.9 0.00291829 0.000476193 0.000603063 28.1102 4.58569 5.807
627 3 9.6 -54.7603 -87.7063 -78.2496 0.000922995 0.00168881 0.00128206 8.8884 16.2679 12.3472
639 3 9.6 -46.7811 -7.37122 -59.135 0.000835669 6.26932e-05 0.0010072 8.04969 0.60395 9.70083
660 3 9.6 -148.506 -11.3595 -105.416 0.00261501 6.88772e-05 0.00193803 25.1885 0.662569 18.6677
669 3 9.6 -39.7472 -52.7913 -154.284 0.000639687 0.00110539 0.00272366 6.16063 10.6472 26.2332
689 3 9.6 -170.177 -29.0654 -12.1092 0.00285141 0.000570584 0.000197613 27.4616 5.50108 1.90194
697 3 9.6 -149.078 -6.10626 -30.4363 0.00266339 0.000145038 0.000566732 25.6543 1.39835 5.45915
722 3 9.6 -40.8523 -175.053 -35.26 0.000787196 0.00309211 0.000714552 7.58234 29.7842 6.88351
724 3 9.6 -45.4952 -86.9912 -130.23 0.000669965 0.00158039 0.00243692 6.44985 15.2224 23.4728
726 3 9.6 -164.857 -41.3368 -75.0569 0.00279471 0.000797556 0.00139962 26.9186 7.68281 13.4832
731 3 9.6 -58.8381 -14.0452 -49.5956 0.00102127 9.42253e-05 0.000921463 9.83531 0.905831 8.87635
732 3 9.6 -3.32129 -38.1099 -8.4607 0.000212344 0.000602734 1.5559e-05 2.0484 5.80412 0.148297
738 3 9.6 -78.8953 -46.305 -144.931 0.00131383 0.00100337 0.00265596 12.6547 9.66533 25.584
742 3 9.6 -130.434 -94.7301 -19.7374 0.0024279 0.00171901 0.000494091 23.387 16.5577 4.76207
758 3 9.6 -1.67999 -130.469 -101.029 -4.39318e-05 0.00209368 0.00179252 -0.424054 20.1628 17.266
763 3 9.6 -65.5516 -137.081 -18.5676 0.00127909 0.00239964 0.000338249 12.3219 23.1135 3.25745
770 3 9.6 -74.6223 -1.66256 -90.7484 0.00129236 7.77613e-06 0.0016208 12.4472 0.0749319 15.6129
773 3 9.6 -33.328 -98.875 -114.416 0.000590028 0.00184024 0.00219785 5.68244 17.7262 21.1714
781 3 9.6 -22.3126 -137.772 -22.8151 0.000416881 0.00234736 0.000389848 4.01538 22.6066 3.75608
784 3 9.6 -154.354 -93.4803 -19.672 0.00267248 0.00180468 0.000423432 25.7412 17.3847 4.07863
787 3 9.6 -49.8592 -97.7158 -57.7276 0.000979011 0.00169235 0.00112005 9.43179 16.2999 10.7904
788 3 9.6 -93.9417 -42.3913 -29.6432 0.00182235 0.000611265 0.000377051 17.5571 5.88453 3.62627
827 3 9.6 -162.354 -23.4494 -67.2269 0.00287704 0.00030837 0.0012265 27.7119 2.97023 11.8142
828 3 9.6 -20.2595 -87.7258 -15.355 0.000271732 0.0015523 0.000204555 2.61642 14.9513 1.96882
829 3 9.6 -25.175 -90.1962 -137.441 0.000473192 0.00165967 0.0025307 4.55741 15.9862 24.3749
846 3 9.6 -169.605 -43.0273 -51.8953 0.00297482 0.000697724 0.000870272 28.6537 6.71987 8.38202
863 3 9.6 -47.9094 -35.3914 -22.9543 0.000826088 0.000585565 0.000431152 7.95733 5.63849 4.15303
896 3 9.6 -4.79962 -43.2045 -164.582 0.00019816 0.00110728 0.0029142 1.91231 10.6712 28.072
901 3 9.6 -75.7516 -137.649 -76.9236 0.0013393 0.00247532 0.00135632 12.9 23.8416 13.0634
903 3 9.6 -62.6564 -32.492 -32.15 0.00108979 0.000558121 0.000465309 10.4956 5.37479 4.47907
906 3 9.6 -76.7702 -169.45 -21.4774 0.00144848 0.00291561 0.000488452 13.9532 28.0854 4.70478
916 3 9.6 -118.895 -19.7131 -65.0393 0.0019425 0.000321903 0.00114874 18.7073 3.10017 11.0656
925 3 9.6 -76.7647 -50.2376 -56.6409 0.00140673 0.00090124 0.00104843 13.5499 8.68053 10.099
930 3 9.6 -78.0171 -99.7975 -112.217 0.00156237 0.00183119 0.00201292 15.0517 17.6377 19.3907
933 3 9.6 -123.729 -99.4137 -84.2577 0.0021674 0.00183542 0.00150112 20.8765 17.6788 14.4584
936 3 9.6 -54.2138 -51.4339 -161.919 0.000991222 0.000895946 0.0029424 9.54779 8.62853 28.341
968 3 9.6 -61.5403 -133.274 -95.7395 0.00118157 0.00235715 0.0016303 11.3815 22.7034 15.6998
969 3 9.6 -45.4192 -86.177 -106.706 0.000767974 0.00165162 0.00206614 7.39595 15.9089 19.9025
972 3 9.6 -82.5676 -62.471 -49.9205 0.00148435 0.00116718 0.00100515 14.2975 11.2437 9.68312
989 3 9.6 -149.44 -49.9555 -84.1105 0.00263367 0.000878736 0.00153245 25.3683 8.4643 14.7618
992 3 9.6 -111.778 -11.6086 -45.631 0.00201181 8.17089e-05 0.000823958 19.3778 0.78577 7.9361
1007 3 9.6 -101.266 -53.0704 -137.208 0.00180765 0.00106525 0.00249581 17.4117 10.261 24.0402
1008 3 9.6 -93.8568 -50.7497 -37.8806 0.00179177 0.000923409 0.000650173 17.2635 8.89488 6.26418
1017 3 9.6 -18.1867 -17.013 -176.725 0.000213128 0.000293441 0.00318601 2.04912 2.82412 30.6902
1018 3 9.6 -79.5169 -46.29 -132.659 0.0014583 0.000953823 0.00228949 14.0461 9.1892 22.0511
1019 3 9.6 -159.653 -14.7442 -48.6356 0.00287399 0.000112085 0.000850239 27.6834 1.07777 8.1886
1023 3 9.6 -79.8372 -66.8282 -129.306 0.00158351 0.00109581 0.00228412 15.2576 10.5509 22.0005
1028 3 9.6 -41.377 -131.176 -62.3988 0.000718601 0.00240892 0.00114914 6.92143 23.2034 11.0685
1065 3 9.6 -97.3135 -102.131 -53.6142 0.00185776 0.00191243 0.000966617 17.8952 18.4216 9.31065
1077 3 9.6 -18.782 -97.4481 -88.8379 0.000255566 0.00185617 0.00154728 2.4596 17.8798 14.9013
1085 3 9.6 -26.9033 -28.8837 -105.473 0.000463961 0.000522938 0.00188137 4.46832 5.03696 18.1226
1087 3 9.6 -94.4892 -57.678 -100.052 0.00174919 0.00104179 0.00192565 16.8481 10.0346 18.5499
1109 3 9.6 -28.5774 -159.236 -69.8743 0.000566629 0.00289354 0.00114302 5.4582 27.8704 11.0063
1121 3 9.6 -87.3056 -10.1471 -127.275 0.00152677 0.000210984 0.00217602 14.707 2.03207 20.9574
1132 3 9.6 -1.73126 -69.9899 -66.2181 -0.000106012 0.00124592 0.00132717 -1.02543 12.0007 12.7847
1139 3 9.6 -135.556 -125.137 -2.26717 0.00244871 0.00212255 8.73083e-05 23.5861 20.4443 0.841195
1162 3 9.6 -64.7607 -151.882 -21.8664 0.00123677 0.00264616 0.000587316 11.9157 25.4831 5.66129
1170 3 9.6 -77.5453 -8.67293 -139.001 0.001288 0.000189529 0.0024451 12.4034 1.82648 23.5513
1210 3 9.6 -1.42678 -79.6848 -118.955 -3.0164e-05 0.00135604 0.00202275 -0.292907 13.0604 19.4808
1215 3 9.6 -29.4768 -14.1871 -69.6342 0.000474954 0.000219851 0.00120881 4.57271 2.11832 11.6429
1218 3 9.6 -39.3408 -23.5065 -155.774 0.000806622 0.000484071 0.00274898 7.77253 4.6629 26.4774
1222 3 9.6 -117.665 -40.218 -129.616 0.00222747 0.000744403 0.00227008 21.4565 7.17048 21.8642
1227 3 9.6 -16.1955 -2.17497 -27.889 0.000310515 1.55733e-05 0.000343114 2.99045 0.148909 3.30263
1228 3 9.6 -77.939 -78.1714 -95.4936 0.00147777 0.00140262 0.00178064 14.2351 13.5099 17.1513
1248 3 9.6 -45.1975 -152.636 -90.3734 0.000844429 0.0027633 0.00168794 8.13416 26.6193 16.2583
1249 3 9.6 -61.6068 -46.8593 -132.741 0.00104071 0.000887106 0.00235958 10.0234 8.54622 22.728
1259 3 9.6 -75.4236 -30.4468 -166.665 0.00129569 0.000746745 0.00305574 12.4823 7.19804 29.4394
1296 3 9.6 -67.2553 -21.7641 -51.8273 0.00125822 0.000362051 0.000924874 12.1201 3.48672 8.90949
1299 3 9.6 -20.5296 -71.8238 -11.4115 0.000358865 0.00131513 0.000168228 3.45592 12.6677 1.61899
1303 3 9.6 -70.7654 -115.278 -84.2637 0.00135819 0.00215045 0.00140206 13.083 20.7136 13.5026
1332 3 9.6 -25.2853 -27.3618 -176.637 0.000443178 0.000856979 0.00312016 4.26692 8.26261 30.0519
1336 3 9.6 -16.1186 -0.309042 -165.672 0.000300742 -0.000162198 0.00304194 2.89668 -1.5682 29.303
1337 3 9.6 -160.008 -60.8276 -61.506 0.00279569 0.00118447 0.0011871 26.9282 11.4102 11.4345
1353 3 9.6 -30.0971 -38.7543 -32.6691 0.000522267 0.000686319 0.000622673 5.02958 6.61097 5.99688
1354 3 9.6 -1.55023 -92.6636 -114.089 -5.60264e-05 0.00173306 0.00204658 -0.541961 16.6935 19.7114
1355 3 9.6 -62.0578 -105.007 -58.0441 0.00111503 0.00187512 0.0011969 10.7405 18.0609 11.5304
1370 3 9.6 -5.51077 -23.1907 -117.685 7.53952e-05 0.000486826 0.00209349 0.726442 4.6913 20.1638
1375 3 9.6 -50.5301 -36.6222 -153.924 0.000935144 0.000783533 0.00273435 9.00829 7.54802 26.3368
1378 3 9.6 -41.9027 -17.991 -177.591 0.00101629 0.000314477 0.00306104 9.79658 3.0287 29.4843
1383 3 9.6 -48.9865 -59.6278 -16.3676 0.000887686 0.00106212 0.00025878 8.55005 10.2299 2.49195
1391 3 9.6 -7.15079 -83.1078 -128.314 0.000208368 0.00156488 0.00237045 2.00871 15.0747 22.8338
1392 3 9.6 -39.2515 -80.5009 -96.4041 0.000658084 0.00150561 0.0018976 6.33821 14.5032 18.282
1412 3 9.6 -38.6282 -105.237 -97.2521 0.00070257 0.00203699 0.0017823 6.76749 19.6226 17.1676
1422 3 9.6 -20.9788 -22.1034 -65.03 0.000275386 0.000406521 0.00116157 2.65081 3.91633 11.1883
1424 3 9.6 -48.294 -163.568 -21.2152 0.000811492 0.00291765 0.00042928 7.81422 28.104 4.13543
1435 3 9.6 -4.2912 -163.123 -16.1428 0.000179871 0.00272218 0.000287748 1.73728 26.2164 2.77129
1444 3 9.6 -65.0593 -65.6043 -37.4644 0.00108118 0.00125153 0.000613316 10.4118 12.0557 5.9057
1450 3 9.6 -93.1602 -30.0634 -123.149 0.00156542 0.000534929 0.00212097 15.0755 5.15203 20.4284
1455 3 9.6 -76.3481 -26.9557 -115.418 0.00142678 0.000426737 0.00212325 13.7435 4.10997 20.4525
1458 3 9.6 -37.2839 -47.6779 -21.293 0.000582478 0.000870676 0.000404949 5.60855 8.38696 3.8998
1460 3 9.6 -149.713 -8.67528 -77.8937 0.00274541 0.000159158 0.0014317 26.4458 1.53346 13.7914
1469 3 9.6 -60.7676 -98.7794 -18.4453 0.00106186 0.00173872 0.000249205 10.2277 16.7475 2.40011
1470 3 9.6 -118.03 -65.9384 -88.5589 0.00214744 0.00128511 0.00169579 20.6851 12.3802 16.3363
1475 3 9.6 -57.297 -134.413 -33.1926 0.00101729 0.00241863 0.000635498 9.79873 23.2972 6.12156
1477 3 9.6 -83.5407 -24.6296 -56.1705 0.00150454 0.000385014 0.00106694 14.4918 3.70653 10.2782
1487 3 9.6 -42.0164 -79.0903 -160.203 0.000714922 0.00143856 0.00280006 6.88579 13.8558 26.9693
1488 3 9.6 -114.594 -30.9634 -77.7057 0.00208698 0.00055261 0.00136264 20.1031 5.32164 13.1256
1490 3 9.6 -103.361 -86.2899 -30.6008 0.00196533 0.00162723 0.000589461 18.9333 15.6743 5.6763
1500 3 9.6 -21.5916 -118.679 -94.0997 0.000418264 0.00205909 0.00168637 4.02768 19.8319 16.244
1518 3 9.6 -3.06092 -12.7484 -171.963 -6.22477e-05 0.000115957 0.00315958 -0.599259 1.11456 30.4372
1519 3 9.6 -24.1469 -136.36 -75.1565 0.000364147 0.00234508 0.00131413 3.50589 22.5863 12.6578
1524 3 9.6 -148.164 -69.743 -56.7398 0.00270757 0.00136675 0.00113254 26.0814 13.1647 10.9102
1526 3 9.6 -52.2448 -90.7911 -25.2879 0.000960603 0.00161238 0.000509416 9.25292 15.5303 4.9058
1532 3 9.6 -17.4706 -76.1301 -53.1432 0.000306277 0.00143423 0.000851513 2.9502 13.8159 8.19856
1536 3 9.6 -3.55208 -34.7087 -156.132 0.00015923 0.000832069 0.00271128 1.53736 8.01822 26.1128
1545 3 9.6 -71.1477 -58.7093 -159.026 0.00123189 0.00104426 0.00275135 11.8652 10.0585 26.5001
1547 3 9.6 -72.8682 -39.8374 -61.2086 0.00129583 0.000647361 0.00108626 12.4805 6.23463 10.4637
1562 3 9.6 -79.4302 -125.705 -16.564 0.00145874 0.00226599 0.000277607 14.0512 21.8268 2.67329
1566 3 9.6 -19.1147 -130.045 -108.352 0.000307718 0.00218256 0.0020095 2.96418 21.0204 19.3571
1567 3 9.6 -93.0087 -94.9439 -97.7171 0.0017299 0.00164727 0.00181342 16.6641 15.8647 17.4676
1568 3 9.6 -31.1588 -66.648 -24.745 0.000659762 0.00114092 0.000519579 6.35784 10.9896 5.00604
1575 3 9.6 -29.9676 -95.4141 -7.4675 0.000512529 0.00174156 3.67774e-05 4.9351 16.7757 0.351862
1580 3 9.6 -118.835 -102.814 -33.0247 0.00218572 0.00186997 0.000748572 21.0546 18.0118 7.21407
1582 3 9.6 -23.9329 -157.207 -81.0675 0.000369461 0.00275265 0.00146748 3.55723 26.5141 14.1354
1584 3 9.6 -64.9605 -148.957 -48.6209 0.00115904 0.00267016 0.00094172 11.163 25.7204 9.07177
1588 3 9.6 -40.0242 -29.8362 -136.175 0.000833583 0.000648833 0.00235887 8.03031 6.25162 22.7187
1593 3 9.6 -70.3232 -84.6963 -131.502 0.0012477 0.00168958 0.00247178 12.0181 16.2781 23.8093
1604 3 9.6 -83.4581 -149.777 -0.40358 0.0016212 0.00267171 2.46625e-05 15.6165 25.7347 0.235517
1610 3 9.6 -59.962 -53.8559 -47.6397 0.000915186 0.000965473 0.000869223 8.81231 9.30007 8.37173
1611 3 9.6 -58.7083 -0.554143 -143.337 0.00122319 -4.62004e-05 0.00253869 11.7854 -0.444938 24.4547
1628 3 9.6 -43.408 -67.4924 -40.0219 0.000831892 0.00118517 0.000713435 8.01334 11.4159 6.87123
1644 3 9.6 -53.0761 -62.1785 -156.409 0.000908801 0.00124076 0.00273807 8.75349 11.9531 26.3713
1645 3 9.6 -41.1145 -97.8015 -5.16072 0.000870723 0.0018477 -1.56744e-05 8.39031 17.7991 -0.153174
1655 3 9.6 -78.5583 -77.9926 -76.2509 0.0013542 0.00147731 0.00136802 13.0433 14.23 13.1773
1670 3 9.6 -88.7111 -122.032 -49.2898 0.00163292 0.00225527 0.00099869 15.7286 21.7234 9.62096
1672 3 9.6 -63.7848 -88.3697 -95.3366 0.0011703 0.00149834 0.00178209 11.2726 14.4308 17.1678
1674 3 9.6 -145.681 -3.06809 -14.43 0.00252949 5.92334e-06 0.000227086 24.3634 0.0564086 2.18601
1679 3 9.6 -125.285 -47.1463 -90.2705 0.00227698 0.000837232 0.00173649 21.9319 8.06496 16.7286
1680 3 9.6 -90.638 -31.2411 -44.2607 0.00174342 0.000552937 0.00076229 16.7949 5.32576 7.34229
1685 3 9.6 -90.9943 -13.7017 -63.4911 0.00167942 0.00015452 0.00114804 16.1778 1.48703 11.0578
1688 3 9.6 -11.0886 -77.7298 -34.9544 0.00030289 0.00150457 0.000618912 2.92157 14.4979 5.96275
1690 3 9.6 -58.3702 -115.878 -45.6021 0.00116225 0.00208268 0.000967961 11.1999 20.0601 9.32618
1697 3 9.6 -117.11 -106.753 -5.50157 0.00214271 0.00198217 0.00023653 20.6394 19.0939 2.28068
1704 3 9.6 -113.414 -34.3881 -51.5576 0.00201679 0.00049082 0.000915735 19.4259 4.72564 8.8199
1709 3 9.6 -67.9116 -80.9198 -51.1099 0.00114221 0.00153596 0.000987804 11.0007 14.7963 9.51586
1715 3 9.6 -139.342 -104.764 -17.423 0.00258762 0.00197705 0.000353055 24.9257 19.0439 3.40147
1722 3 9.6 -125.002 -12.6082 -16.3723 0.00220144 0.000272237 0.000286885 21.204 2.62254 2.76319
1723 3 9.6 -27.2342 -121.644 -76.9543 0.00046572 0.00210185 0.00148199 4.48402 20.2436 14.2747
1736 3 9.6 -86.3136 -6.84378 -104.801 0.0013959 0.000141902 0.00204819 13.441 1.36697 19.7315
1745 3 9.6 -22.8894 -4.20502 -106.261 0.000465055 0.000134775 0.00185527 4.48185 1.29895 17.8684
1751 3 9.6 -38.5691 -83.3679 -51.8346 0.000853056 0.00158227 0.000977609 8.21841 15.2443 9.41649
1761 3 9.6 -89.5217 -116.549 -107.129 0.00151919 0.00206703 0.00205368 14.6301 19.9113 19.7839
1762 3 9.6 -1.91559 -175.247 -47.8002 3.64714e-05 0.00304559 0.000820173 0.350688 29.3352 7.89918
1775 3 9.6 -25.0831 -60.6371 -17.02 0.000459825 0.000916768 0.000196753 4.42954 8.82689 1.89283
1776 3 9.6 -105.459 -64.3984 -14.254 0.0018959 0.00113021 0.000324423 18.2629 10.8854 3.12528
1779 3 9.6 -72.7657 -78.5036 -26.0796 0.00115853 0.00144432 0.000399156 11.1549 13.9122 3.84303
1782 3 9.6 -154.407 -29.4445 -49.7104 0.0027707 0.000518711 0.000855285 26.6879 4.99659 8.23783
1785 3 9.6 -65.0552 -48.8038 -2.70273 0.00114274 0.000796224 6.30309e-05 11.0073 7.66811 0.607216
1786 3 9.6 -112.337 -79.7026 -77.8213 0.00206722 0.00156126 0.00147453 19.913 15.0404 14.2043
1816 3 9.6 -57.254 -135.262 -106.472 0.000942286 0.00241368 0.00200459 9.07544 23.2483 19.3103
1826 3 9.6 -23.3854 -34.9221 -84.8765 0.000376537 0.000555006 0.00162432 3.62564 5.34492 15.6474
1844 3 9.6 -128.726 -36.6998 -23.4298 0.00224717 0.000476194 0.000356161 21.6445 4.58419 3.43052
1849 3 9.6 -59.1785 -166.377 -29.8709 0.00111859 0.00300631 0.000685317 10.7749 28.9589 6.60411
1876 3 9.6 -151.518 -29.3911 -99.409 0.00269055 0.000525861 0.00164253 25.9181 5.06453 15.8173
1879 3 9.6 -72.4147 -24.2197 -71.1704 0.00135534 0.000378678 0.00127321 13.0547 3.64662 12.2642
1883 3 9.6 -5.96651 -126.689 -29.2785 0.000118398 0.00218303 0.000596207 1.14276 21.026 5.7432
1903 3 9.6 -114.002 -106.796 -23.3935 0.00197612 0.0020131 0.000395216 19.0334 19.3924 3.80518
1916 3 9.6 -69.5067 -2.73291 -166.753 0.00129218 -3.6009e-05 0.00292019 12.4473 -0.347661 28.1262
1917 3 9.6 -14.7879 -162.262 -43.8221 0.000290212 0.00280883 0.000802933 2.79601 27.0541 7.73439
1926 3 9.6 -109.517 -62.6187 -58.9052 0.00198283 0.00113665 0.00108151 19.0988 10.9488 10.4173
1929 3 9.6 -100.113 -68.5005 -81.7846 0.00185247 0.00125681 0.00160182 17.8438 12.1062 15.4314
1939 3 9.6 -137.154 -98.4587 -51.1535 0.00248557 0.0017767 0.000945309 23.9409 17.1131 9.10539
1940 3 9.6 -14.824 -130.345 -91.6386 0.000250364 0.00222494 0.0016462 2.41112 21.428 15.8564
1944 3 9.6 -15.2265 -43.4685 -147.317 0.000291567 0.00110633 0.00255692 2.80906 10.6614 24.6267
1954 3 9.6 -135.723 -117.4 -38.8467 0.00240688 0.0020338 0.000698362 23.1823 19.5893 6.72644
1955 3 9.6 -61.5396 -15.4934 -149.014 0.00112767 0.000248119 0.00254688 10.8621 2.38818 24.5303
1965 3 9.6 -38.6848 -57.5617 -167.225 0.000594292 0.00110245 0.00298741 5.72338 10.6192 28.7741
1966 3 9.6 -46.9478 -49.9639 -80.9881 0.000932395 0.000867884 0.00144862 8.98066 8.35855 13.9549
1969 3 9.6 -102.022 -22.2965 -150.511 0.00179816 0.000412268 0.00266397 17.3194 3.97154 25.6596
1972 3 9.6 -71.3838 -143.154 -5.47131 0.00133453 0.00251793 6.00926e-05 12.8564 24.2512 0.578218
1982 3 9.6 -110.169 -9.19979 -75.0833 0.00196933 0.000111006 0.00125637 18.969 1.06921 12.0997
1985 3 9.6 -66.2953 -163.214 -47.3471 0.00114485 0.00293586 0.000851492 11.0268 28.2792 8.20174
1986 3 9.6 -90.6073 -89.8336 -10.3287 0.00166872 0.00159443 0.000138945 16.0741 15.3575 1.33826
1987 3 9.6 -26.5592 -37.8555 -163.864 0.000493983 0.000956106 0.00300594 4.75865 9.21292 28.9549
1989 3 9.6 -159.177 -23.6522 -85.7003 0.00291144 0.000379501 0.00151351 28.0445 3.65613 14.5789
1990 3 9.6 -98.6543 -132.615 -10.9413 0.00171509 0.0025521 0.000271409 16.5201 24.5837 2.61529
1998 3 9.6 -128.758 -84.5931 -69.3165 0.00235341 0.00158045 0.00144694 22.6699 15.225 13.9409
2000 3 9.6 -46.2651 -125.531 -72.7039 0.000827426 0.00204943 0.00140826 7.97091 19.7371 13.564
2005 3 9.6 -148.002 -74.6621 -45.0873 0.00264948 0.00145012 0.000771414 25.521 13.9709 7.43024
2006 3 9.6 -10.2395 -104.092 -67.259 0.000168184 0.00200408 0.00127855 1.62003 19.3053 12.3159
2011 3 9.6 -36.6784 -116.313 -61.1235 0.000739025 0.00213259 0.00128713 7.12111 20.5458 12.4024
2017 3 9.6 -98.881 -151.034 -33.8608 0.00176532 0.00262753 0.000558752 17.0033 25.3081 5.38203
2021 3 9.6 -52.335 -35.8727 -102.895 0.000861549 0.000677779 0.00189163 8.29729 6.53074 18.2211
2031 3 9.6 -54.4316 -95.7649 -147.087 0.000795295 0.00173438 0.00260994 7.65937 16.7071 25.1382
2036 3 9.6 -48.122 -43.9573 -91.4397 0.000792578 0.000719705 0.00169378 7.63534 6.93169 16.3156
2061 3 9.6 -42.424 -89.41 -15.8336 0.000885817 0.00162016 0.000266395 8.53557 15.6059 2.56636
2082 3 9.6 -170.22 -55.2169 -53.6599 0.0029539 0.00106767 0.000971642 28.4529 10.2853 9.3583
2086 3 9.6 -12.9545 -14.6414 -55.8789 0.000180394 0.000290039 0.00113364 1.73811 2.79517 10.9237
2104 3 9.6 -174.51 -22.4318 -22.5539 0.00301554 0.000501261 0.000700375 29.0423 4.83068 6.75127
2107 3 9.6 -171.906 -55.9024 -8.77055 0.00311534 0.00109003 6.66723e-05 30.0084 10.4988 0.642452
2109 3 9.6 -20.8012 -53.2811 -123.892 0.000299168 0.00101651 0.00237165 2.88003 9.79193 22.8458
2120 3 9.6 -5.81862 -11.3773 -124.64 8.93593e-05 0.000232228 0.00229239 0.86033 2.23805 22.0795
2155 3 9.6 -46.5047 -111.328 -120.386 0.000665725 0.0021058 0.00219653 6.41057 20.2843 21.1566
2160 3 9.6 -70.9103 -29.9264 -154.708 0.00119721 0.000727774 0.00266569 11.5284 7.01465 25.6702
2165 3 9.6 -37.6468 -22.463 -71.4321 0.000755134 0.000479418 0.00133208 7.27521 4.62007 12.8316
2171 3 9.6 -68.2406 -17.5551 -127.182 0.0011883 0.000258189 0.00223188 11.4456 2.48595 21.4977
2181 3 9.6 -32.7378 -31.5125 -13.7558 0.000545425 0.00056687 9.74663e-05 5.25204 5.46042 0.935758
2190 3 9.6 -170.291 -29.3275 -54.0921 0.00303868 0.000405774 0.000904664 29.269 3.90832 8.71265
2194 3 9.6 -104.479 -48.2503 -22.0561 0.00190235 0.000845676 0.000351633 18.3246 8.14345 3.38554
2200 3 9.6 -69.3245 -129.768 -41.87 0.00127677 0.00228476 0.000733667 12.2983 22.0072 7.06496
2210 3 9.6 -131.333 -29.4276 -107.724 0.00228306 0.000645898 0.0020507 21.9925 6.22354 19.7552
2211 3 9.6 -148.328 -20.8046 -3.53922 0.00250774 0.000340477 0.000130703 24.1519 3.27814 1.26003
2223 3 9.6 -106.692 -132.573 -31.4087 0.00199459 0.00245369 0.000548772 19.2134 23.6339 5.28581
2233 3 9.6 -81.8233 -60.685 -64.0744 0.00146444 0.00120508 0.00132205 14.107 11.6094 12.7365
2235 3 9.6 -108.675 -31.6184 -126.84 0.00199479 0.000602673 0.00215544 19.2164 5.80575 20.7596
2236 3 9.6 -93.9118 -39.8904 -59.9775 0.00172442 0.00065881 0.00106426 16.6113 6.34503 10.2513
2240 3 9.6 -48.3193 -7.7927 -23.198 0.000788418 0.000106354 0.000291297 7.59303 1.02217 2.80513
2243 3 9.6 -34.3728 -97.6281 -53.4498 0.000665327 0.00164098 0.000977424 6.40922 15.8009 9.41304
2246 3 9.6 -9.01812 -40.7046 -67.9548 4.48935e-05 0.000646296 0.00125745 0.429604 6.2241 12.1134
2261 3 9.6 -47.6689 -44.3861 -15.7376 0.000870557 0.000815074 0.000172018 8.38554 7.85211 1.65463
2263 3 9.6 -53.5287 -25.7154 -110.23 0.000972782 0.000383619 0.00219081 9.36946 3.69397 21.1057
2264 3 9.6 -145.319 -87.6671 -7.58168 0.00259073 0.0017058 0.000132685 24.9541 16.4314 1.2778
2288 3 9.6 -108.238 -124.493 -54.5144 0.00201425 0.0021771 0.000971834 19.4025 20.9686 9.3612
2298 3 9.6 -36.0942 -166.999 -50.905 0.000716706 0.00297342 0.000996539 6.90365 28.6394 9.5993
2306 3 9.6 -21.8068 -104.273 -99.0317 0.000352603 0.00202098 0.00185239 3.39549 19.4718 17.8431
2340 3 9.6 -42.9085 -111.139 -42.5162 0.000789447 0.00181614 0.000862583 7.60376 17.488 8.31049
2344 3 9.6 -61.9176 -86.6942 -146.984 0.00104882 0.00152878 0.00262105 10.1025 14.724 25.246
2355 3 9.6 -149.935 -61.442 -77.9701 0.00266224 0.00125666 0.00142472 25.6432 12.1057 13.7227
2358 3 9.6 -80.6251 -107.837 -31.9921 0.00147608 0.00204036 0.000472174 14.2178 19.6555 4.54549
2363 3 9.6 -53.869 -25.5221 -84.7801 0.000845395 0.000488134 0.00149254 8.1406 4.70217 14.3759
2377 3 9.6 -60.3115 -0.987009 -70.6127 0.00109344 -7.86737e-05 0.00125713 10.5311 -0.759911 12.1078
2391 3 9.6 -23.7519 -113.784 -110.822 0.000458987 0.00204615 0.00211806 4.41998 19.7092 20.4016
2399 3 9.6 -15.0566 -169.415 -77.5748 0.000243945 0.00296768 0.00123715 2.34914 28.5868 11.9143
2417 3 9.6 -84.8537 -32.6936 -85.01 0.0015101 0.000584932 0.00166151 14.5443 5.63438 16.0062
2430 3 9.6 -4.61847 -73.404 -134.738 4.91078e-05 0.00120118 0.00250428 0.473615 11.5675 24.1225
2450 3 9.6 -1.90684 -41.9858 -88.7003 8.02447e-05 0.000742734 0.00156113 0.772126 7.15365 15.0372
2452 3 9.6 -9.57485 -184.411 -28.2169 0.000268022 0.00321022 0.000521158 2.58239 30.9218 5.0204
2471 3 9.6 -116.108 -29.2816 -109.679 0.00197838 0.000684759 0.00206622 19.0553 6.59883 19.9046
2481 3 9.6 -134.774 -46.6099 -17.7885 0.0024069 0.000717276 0.000224387 23.1842 6.90658 2.1596
2486 3 9.6 -113.656 -92.3449 -18.8893 0.00198799 0.00159372 0.000366803 19.147 15.35 3.53308
2491 3 9.6 -135.378 -12.0902 -7.51554 0.00237043 0.000216624 9.00762e-05 22.8318 2.0873 0.867477
2504 3 9.6 -103.401 -8.17967 -0.250584 0.00172593 3.22554e-05 0.000121688 16.622 0.307434 1.17404
2508 3 9.6 -63.3764 -64.2481 -131.928 0.000964287 0.00102073 0.00241128 9.28457 9.82601 23.227
2514 3 9.6 -123.493 -57.8234 -50.6289 0.00222645 0.000958459 0.00093594 21.4443 9.23127 9.01383
2521 3 9.6 -53.2282 -144.352 -90.0109 0.00113654 0.00255554 0.0016231 10.9501 24.6132 15.6339
2525 3 9.6 -21.288 -122.945 -31.5474 0.000269761 0.0022357 0.000515469 2.59442 21.5356 4.96344
2526 3 9.6 -109.524 -93.912 -5.16037 0.00188011 0.0016281 0.000128679 18.1085 15.6797 1.23995
2532 3 9.6 -99.9763 -105.183 -90.3529 0.0019526 0.00183567 0.0014687 18.8082 17.6802 14.1445