ITEM: TIMESTEP
5400
ITEM: NUMBER OF ATOMS
6100
ITEM: BOX BOUNDS ff ff ff
-1.0000000000000000e+03 1.0000000000000000e+03
-1.0000000000000000e+03 1.0000000000000000e+03
-1.0000000000000000e+03 1.0000000000000000e+03
ITEM: ATOMS id type diameter x y z vx vy vz fx fy fz
3 1 7.68 -174.815 -23.0073 -44.4778 0.00234581 0.000218431 0.000550138 15.4109 1.43489 3.61401
10 1 7.68 -56.3384 -113.924 -93.4672 0.000642148 0.00159489 0.0012647 4.21803 10.4783 8.30845
20 1 7.68 -156.048 -37.6282 -90.1709 0.00203849 0.000556596 0.0011747 13.3922 3.65676 7.71721
25 1 7.68 -96.9907 -36.0824 -151.534 0.00136441 0.000462364 0.00199437 8.96427 3.03707 13.1021
30 1 7.68 -4.95661 -24.0802 -19.9957 0.000114679 0.000397393 6.85841e-05 0.754341 2.61164 0.449389
35 1 7.68 -109.739 -74.6285 -10.9146 0.00152456 0.00105367 0.000202649 10.016 6.92246 1.33124
44 1 7.68 -150.691 -89.4162 -61.8221 0.00190247 0.00121694 0.000850395 12.4982 7.99476 5.58659
57 1 7.68 -47.9089 -113.363 -3.87047 0.000660826 0.00141746 7.98362e-05 4.34162 9.31137 0.524625
62 1 7.68 -116.059 -26.9432 -6.74563 0.00153466 0.000327982 0.000168687 10.0819 2.15483 1.10863
67 1 7.68 -28.0724 -70.3233 -127.109 0.000264898 0.000953679 0.00175309 1.73959 6.26523 11.5177
72 1 7.68 -87.6925 -130.052 -82.2362 0.00113524 0.00174573 0.00104498 7.4582 11.4687 6.86451
79 1 7.68 -9.95939 -130.403 -59.6552 8.14095e-05 0.00174496 0.000837338 0.534487 11.4634 5.50108
93 1 7.68 -163.876 -35.8317 -19.3809 0.00212379 0.000456811 0.000338356 13.9522 3.00058 2.22286
122 1 7.68 -74.6093 -76.772 -62.7286 0.0010038 0.00110673 0.000899234 6.59447 7.27122 5.90834
125 1 7.68 -57.1234 -20.2633 -167.381 0.000734101 0.000328672 0.00226871 4.82229 2.15904 14.9048
127 1 7.68 -79.663 -32.1041 -13.2105 0.00106037 0.000317165 5.57611e-05 6.96638 2.08336 0.36576
149 1 7.68 -124.57 -114.06 -68.5359 0.00168951 0.00149995 0.000925471 11.0991 9.85364 6.07984
150 1 7.68 -68.9299 -106.053 -93.4891 0.000939345 0.0014548 0.00117147 6.17143 9.55792 7.6956
157 2 8.64 -61.8439 -75.3873 -17.8047 0.00077765 0.00106783 0.000188681 7.27388 9.98881 1.76489
162 2 8.64 -13.7906 -108.09 -150.76 0.000263219 0.00132879 0.00195908 2.46197 12.4284 18.3239
166 2 8.64 -37.971 -31.8837 -119.881 0.000498175 0.000407997 0.001641 4.6597 3.81617 15.3504
178 2 8.64 -94.3912 -18.1505 -102.239 0.00124329 0.000384688 0.00145138 11.6293 3.59973 13.577
187 2 8.64 -32.5067 -105.995 -140.571 0.000455715 0.00137334 0.00182459 4.26247 12.8455 17.0662
193 2 8.64 -120.544 -60.4691 -108.837 0.00158285 0.000857052 0.00151581 14.8056 8.0169 14.1788
208 2 8.64 -63.2087 -130.584 -57.0618 0.000862754 0.00178025 0.000938267 8.06956 16.6522 8.77786
215 2 8.64 -135.663 -9.17688 -51.6507 0.00175753 5.34105e-05 0.000627537 16.4396 0.499203 5.86907
230 2 8.64 -95.285 -59.0609 -46.6748 0.00137383 0.000795183 0.000668559 12.852 7.43779 6.2536
237 2 8.64 -111.87 -17.3106 -27.0719 0.00150541 0.000269568 0.000325821 14.0815 2.52111 3.04734
253 2 8.64 -35.0012 -145.469 -21.0871 0.000532396 0.00185841 0.000264026 4.98025 17.383 2.4694
255 2 8.64 -36.1843 -41.2496 -52.4113 0.000532747 0.000388142 0.000550655 4.98545 3.62744 5.14799
256 2 8.64 -26.5069 -91.129 -76.016 0.000423061 0.00139483 0.00104818 3.95809 13.0495 9.80498
257 2 8.64 -28.2193 -142.987 -1.84455 0.000322782 0.00192008 0.000145094 3.019 17.9607 1.3585
265 2 8.64 -61.379 -117.263 -66.8614 0.000866643 0.00158315 0.000971372 8.10663 14.8088 9.08709
276 2 8.64 -130.694 -38.637 -47.044 0.00174842 0.000497278 0.000595963 16.3546 4.65098 5.57403
288 2 8.64 -116.034 -21.5801 -40.0272 0.00156465 0.000287508 0.000486476 14.6361 2.68923 4.54971
296 2 8.64 -32.3387 -71.6617 -88.6716 0.0003867 0.00107662 0.00132239 3.6171 10.0723 12.3714
305 2 8.64 -8.08363 -91.2994 -49.1544 9.60809e-05 0.00136027 0.000684174 0.898905 12.7254 6.39995
307 2 8.64 -113.318 -114.5 -65.0207 0.00151728 0.00153786 0.000887213 14.1925 14.3849 8.29906
315 2 8.64 -4.17079 -105.02 -102.804 1.4949e-05 0.00146091 0.00145032 0.139178 13.6656 13.5664
321 2 8.64 -49.1906 -109.518 -22.182 0.000639888 0.0014394 0.000202071 5.98545 13.4637 1.88922
323 2 8.64 -57.7323 -30.5575 -129.277 0.000723869 0.000389485 0.0017364 6.77046 3.64316 16.242
328 2 8.64 -92.1863 -66.0302 -36.8857 0.00133016 0.000883641 0.000368517 12.444 8.26586 3.44592
340 2 8.64 -103.239 -56.3169 -79.9438 0.00134804 0.000798438 0.00116323 12.6093 7.46954 10.8815
352 2 8.64 -73.6506 -6.27735 -60.9019 0.00103559 1.54251e-05 0.000811309 9.68717 0.143739 7.58878
360 2 8.64 -168.732 -12.6987 -65.4677 0.0022694 5.51618e-05 0.00087016 21.2281 0.515405 8.13925
364 2 8.64 -147.183 -15.0625 -18.4431 0.00191203 0.000267232 0.00025393 17.8849 2.50012 2.37538
366 2 8.64 -18.0679 -62.5484 -165.562 0.000290993 0.00082805 0.00218259 2.72192 7.74484 20.4152
378 2 8.64 -20.2002 -12.8864 -82.9704 0.000207326 0.000285981 0.00111732 1.93851 2.67555 10.4515
381 2 8.64 -50.6855 -71.6626 -142.345 0.000598809 0.000987232 0.00194325 5.60052 9.23409 18.1772
394 2 8.64 -76.0975 -38.8926 -29.7671 0.000958268 0.000555328 0.000231896 8.96264 5.19538 2.16725
396 2 8.64 -36.7561 -76.9016 -72.6624 0.000640134 0.0011535 0.000943511 5.99009 10.792 8.82582
410 2 8.64 -128.87 -65.3161 -69.8111 0.00170298 0.000998541 0.00106781 15.9299 9.34054 9.98868
413 2 8.64 -30.2225 -53.2793 -4.14155 0.000383475 0.00061334 -4.2486e-05 3.58682 5.73635 -0.398062
431 2 8.64 -12.5726 -0.714236 -4.7168 0.000200665 -2.84511e-05 0.000109251 1.87748 -0.266412 1.02274
445 2 8.64 -60.1811 -79.8511 -123.572 0.000653176 0.00105607 0.00171967 6.10853 9.87953 16.0858
449 2 8.64 -31.1925 -45.0089 -107.666 0.000394579 0.0005278 0.0014559 3.69053 4.9357 13.6187
450 2 8.64 -43.9575 -176.611 -10.393 0.000578752 0.00234913 0.000146298 5.41318 21.974 1.36845
476 3 9.6 -9.80347 -1.30056 -71.7309 0.000162365 1.24924e-05 0.000967901 2.08339 0.160115 12.419
480 3 9.6 -30.728 -4.32414 -127.723 0.000443184 5.00794e-05 0.00164865 5.68671 0.642514 21.1527
485 3 9.6 -134.559 -23.3256 -56.1921 0.00175363 0.000237736 0.00060037 22.5011 3.0482 7.70055
509 3 9.6 -89.6746 -152.153 -18.4118 0.00125897 0.00199313 0.000267771 16.1546 25.5738 3.43593
514 3 9.6 -23.6876 -73.4779 -78.522 0.000227702 0.00110759 0.00120515 2.92015 14.2146 15.4665
518 3 9.6 -138.208 -54.1074 -39.0988 0.00177936 0.000630042 0.000549584 22.8305 8.08338 7.05216
519 3 9.6 -79.5807 -93.7457 -4.36452 0.00104684 0.0012646 4.1994e-05 13.4318 16.2264 0.538434
521 3 9.6 -145.218 -54.6039 -96.9031 0.00189224 0.000813304 0.00129301 24.2794 10.4359 16.5908
529 3 9.6 -26.3235 -109.96 -66.2974 0.000249627 0.00151377 0.0011256 3.20034 19.4246 14.4483
530 3 9.6 -146.116 -46.8519 -63.8678 0.00199481 0.000731056 0.000906355 25.5968 9.38251 11.6291
552 3 9.6 -99.5347 -37.9639 -87.0575 0.00133963 0.000520755 0.00134779 17.1901 6.68228 17.2952
554 3 9.6 -51.3596 -34.6875 -49.3014 0.000658971 0.000486458 0.000689164 8.45392 6.24235 8.84251
561 3 9.6 -54.8662 -57.3827 -92.4752 0.000768101 0.000750873 0.00129556 9.85576 9.63387 16.6245
564 3 9.6 -75.9231 -140.806 -41.9216 0.00109182 0.00189775 0.000574449 14.0106 24.3509 7.37047
573 3 9.6 -67.5004 -2.65932 -104.512 0.000876655 -5.90997e-05 0.0015155 11.2487 -0.759755 19.4478
609 3 9.6 -102.873 -52.1906 -65.8761 0.00132848 0.000720201 0.000895782 17.0453 9.24123 11.4942
626 3 9.6 -163.817 -27.9823 -35.9229 0.00218771 0.000357001 0.000452122 28.0714 4.58015 5.80026
627 3 9.6 -54.7953 -87.7703 -78.2982 0.000691967 0.00126602 0.000961143 8.87762 16.2451 12.3316
639 3 9.6 -46.8128 -7.3736 -59.1732 0.00062646 4.69972e-05 0.000755071 8.03846 0.603075 9.68807
660 3 9.6 -148.605 -11.3621 -105.49 0.00196036 5.16492e-05 0.00145286 25.154 0.662235 18.642
669 3 9.6 -39.7715 -52.8333 -154.388 0.000479563 0.000828668 0.00204184 6.15285 10.6328 26.1984
689 3 9.6 -170.286 -29.087 -12.1167 0.00213765 0.000427656 0.000148168 27.4266 5.49022 1.90033
697 3 9.6 -149.179 -6.11177 -30.4578 0.00199664 0.000108707 0.000424851 25.6193 1.39558 5.45152
722 3 9.6 -40.8821 -175.171 -35.2871 0.00059013 0.00231802 0.000535656 7.57205 29.7433 6.87359
724 3 9.6 -45.5206 -87.0512 -130.323 0.000502302 0.00118476 0.00182686 6.44326 15.2018 23.4408
726 3 9.6 -164.963 -41.3671 -75.11 0.00209508 0.000597885 0.00104921 26.8822 7.67194 13.4636
731 3 9.6 -58.8768 -14.0488 -49.6305 0.000765637 7.06669e-05 0.000690771 9.82307 0.905754 8.86381
732 3 9.6 -3.32935 -38.1328 -8.46129 0.000159133 0.000451871 1.16907e-05 2.04359 5.7972 0.149125
738 3 9.6 -78.9452 -46.343 -145.032 0.000984928 0.000752178 0.00199104 12.6377 9.65172 25.5483
742 3 9.6 -130.526 -94.7953 -19.7562 0.00182008 0.00128867 0.00037035 23.3544 16.5352 4.75367
758 3 9.6 -1.67832 -130.548 -101.097 -3.29186e-05 0.00156961 0.00134377 -0.422888 20.1378 17.2424
763 3 9.6 -65.6001 -137.172 -18.5804 0.000958855 0.00179892 0.000253582 12.3041 23.0822 3.25342
770 3 9.6 -74.6714 -1.66285 -90.8099 0.000968846 5.82892e-06 0.00121503 12.4309 0.074809 15.5909
773 3 9.6 -33.3504 -98.9448 -114.499 0.000442334 0.00137954 0.00164761 5.67522 17.7016 21.1416
781 3 9.6 -22.3284 -137.862 -22.8299 0.00031252 0.00175978 0.000292236 4.00996 22.5781 3.7503
784 3 9.6 -154.455 -93.5488 -19.6881 0.00200346 0.00135286 0.000317428 25.7065 17.3599 4.07303
787 3 9.6 -49.8963 -97.78 -57.7701 0.000733894 0.0012687 0.000839622 9.41775 16.2784 10.7744
788 3 9.6 -94.0108 -42.4145 -29.6575 0.00136607 0.000458296 0.000282754 17.5306 5.87866 3.62496
827 3 9.6 -162.464 -23.4611 -67.2734 0.0021568 0.000231173 0.00091945 27.6743 2.96621 11.7978
828 3 9.6 -20.2698 -87.7847 -15.3627 0.000203723 0.0011637 0.000153372 2.61348 14.9314 1.96711
829 3 9.6 -25.1929 -90.2591 -137.537 0.000354741 0.00124418 0.00189718 4.5515 15.9644 24.3425
846 3 9.6 -169.718 -43.0538 -51.9283 0.00223011 0.000523067 0.000652418 28.6148 6.71118 8.37098
863 3 9.6 -47.9407 -35.4136 -22.9706 0.000619279 0.000439004 0.000323215 7.94628 5.63196 4.1473
896 3 9.6 -4.80713 -43.2465 -164.693 0.000148491 0.000829988 0.00218463 1.90734 10.6529 28.0325
901 3 9.6 -75.8024 -137.743 -76.9751 0.00100402 0.00185567 0.0010168 12.8826 23.8098 13.0462
903 3 9.6 -62.6978 -32.5132 -32.1676 0.000816997 0.00041842 0.000348872 10.4822 5.3682 4.47484
906 3 9.6 -76.8252 -169.561 -21.4959 0.00108585 0.00218568 0.000366174 13.9334 28.046 4.69841
916 3 9.6 -118.969 -19.7253 -65.0829 0.00145626 0.000241325 0.000861155 18.6839 3.09624 11.05
925 3 9.6 -76.8181 -50.2718 -56.6806 0.00105456 0.000675629 0.000785956 13.5314 8.66893 10.085
930 3 9.6 -78.0764 -99.867 -112.294 0.0011712 0.00137278 0.00150897 15.0294 17.6141 19.363
933 3 9.6 -123.811 -99.4834 -84.3147 0.00162482 0.00137595 0.00112534 20.8482 17.6549 14.4391
936 3 9.6 -54.2514 -51.4679 -162.03 0.000743075 0.000671678 0.00220581 9.53466 8.61767 28.3028
968 3 9.6 -61.5851 -133.363 -95.8014 0.000885771 0.00176708 0.00122223 11.3657 22.6732 15.6807
969 3 9.6 -45.4483 -86.2396 -106.785 0.000575741 0.00123815 0.00154888 7.38673 15.8871 19.8746
972 3 9.6 -82.624 -62.5153 -49.9586 0.00111275 0.000874964 0.000753494 14.278 11.2276 9.66901
989 3 9.6 -149.54 -49.9888 -84.1686 0.00197435 0.00065875 0.0011488 25.3335 8.45265 14.741
992 3 9.6 -111.854 -11.6117 -45.6622 0.00150818 6.12754e-05 0.000617695 19.3516 0.785529 7.92555
1007 3 9.6 -101.335 -53.1108 -137.302 0.00135512 0.000798564 0.00187101 17.3879 10.2468 24.0073
1008 3 9.6 -93.9248 -50.7847 -37.9052 0.00134313 0.000692234 0.00048738 17.2368 8.88246 6.25458
1017 3 9.6 -18.1948 -17.0242 -176.846 0.000159838 0.000220021 0.00238839 2.0488 2.82182 30.647
1018 3 9.6 -79.5723 -46.3262 -132.746 0.00109324 0.000715011 0.00171636 14.0273 9.17548 22.0221
1019 3 9.6 -159.762 -14.7484 -48.6679 0.0021545 8.40569e-05 0.000637407 27.6452 1.07752 8.17812
1023 3 9.6 -79.8973 -66.8698 -129.392 0.00118701 0.000821558 0.00171232 15.2336 10.5393 21.9708
1028 3 9.6 -41.4043 -131.267 -62.4424 0.00053871 0.00180587 0.000861463 6.91216 23.1716 11.0535
1065 3 9.6 -97.3839 -102.204 -53.6509 0.00139267 0.00143365 0.000724632 17.8702 18.396 9.29793
1077 3 9.6 -18.7917 -97.5186 -88.8966 0.000191623 0.00139148 0.00115997 2.4576 17.8548 14.8825
1085 3 9.6 -26.9209 -28.9036 -105.544 0.000347823 0.000392026 0.00141037 4.46264 5.03014 18.0973
1087 3 9.6 -94.5556 -57.7176 -100.125 0.0013113 0.000780991 0.00144355 16.8254 10.021 18.5235
1109 3 9.6 -28.5989 -159.346 -69.9177 0.000424773 0.00216918 0.000856934 5.45054 27.8328 10.9935
1121 3 9.6 -87.3636 -10.1551 -127.357 0.00114454 0.000158168 0.00163132 14.6864 2.02941 20.9304
1132 3 9.6 -1.72723 -70.0372 -66.2684 -7.93994e-05 0.000934017 0.000994909 -1.02121 11.9845 12.7665
1139 3 9.6 -135.649 -125.217 -2.27048 0.00183571 0.00159119 6.54475e-05 23.5542 20.4167 0.839899
1162 3 9.6 -64.8077 -151.982 -21.8886 0.00092711 0.0019838 0.000440216 11.8976 25.4517 5.65084
1170 3 9.6 -77.5941 -8.68012 -139.094 0.00096561 0.000142067 0.001833 12.3884 1.82339 23.5194
1210 3 9.6 -1.42564 -79.7362 -119.031 -2.25725e-05 0.00101659 0.00151642 -0.290956 13.0434 19.456
1215 3 9.6 -29.4948 -14.1955 -69.68 0.00035609 0.000164802 0.000906203 4.56787 2.11499 11.6274
1218 3 9.6 -39.3714 -23.5249 -155.878 0.00060464 0.000362884 0.00206082 7.75995 4.65638 26.4421
1222 3 9.6 -117.75 -40.2462 -129.702 0.00166982 0.000558044 0.00170181 21.4265 7.16053 21.8355
1227 3 9.6 -16.2073 -2.17556 -27.902 0.000232788 1.16933e-05 0.000257258 2.98669 0.149425 3.29964
1228 3 9.6 -77.9951 -78.2246 -95.5612 0.0011078 0.00105149 0.00133487 14.215 13.4917 17.128
1248 3 9.6 -45.2295 -152.741 -90.4374 0.000633025 0.00207149 0.00126539 8.12275 26.5812 16.2363
1249 3 9.6 -61.6463 -46.893 -132.83 0.000780196 0.000665002 0.00176888 10.0103 8.5336 22.6969
1259 3 9.6 -75.4728 -30.4751 -166.781 0.000971291 0.000559715 0.00229066 12.464 7.18477 29.3953
1296 3 9.6 -67.303 -21.7778 -51.8624 0.00094322 0.000271426 0.000693324 12.1031 3.48237 8.89672
1299 3 9.6 -20.5433 -71.8737 -11.4179 0.000269038 0.000985899 0.000126137 3.45169 12.6503 1.61771
1303 3 9.6 -70.8169 -115.36 -84.3169 0.00101817 0.0016121 0.00105111 13.0647 20.6853 13.4857
1332 3 9.6 -25.3022 -27.3943 -176.755 0.000332264 0.000642305 0.00233909 4.26232 8.24606 30.0123
1336 3 9.6 -16.13 -0.30289 -165.788 0.000225456 -0.000121493 0.00228037 2.89281 -1.5622 29.2614
1337 3 9.6 -160.114 -60.8726 -61.5511 0.00209582 0.000887925 0.000889918 26.8917 11.3938 11.4188
1353 3 9.6 -30.1169 -38.7803 -32.6927 0.000391539 0.000514502 0.000466806 5.02337 6.6018 5.98924
1354 3 9.6 -1.54811 -92.7293 -114.166 -4.19614e-05 0.0012992 0.00153427 -0.539709 16.6705 19.6856
1355 3 9.6 -62.1001 -105.078 -58.0895 0.000835889 0.00140571 0.000897239 10.7257 18.0366 11.5136
1370 3 9.6 -5.51363 -23.2092 -117.764 5.65169e-05 0.000364917 0.00156942 0.725305 4.68352 20.137
1375 3 9.6 -50.5655 -36.6519 -154.027 0.000701025 0.000587368 0.00204985 8.99547 7.53714 26.3015
1378 3 9.6 -41.9413 -18.0029 -177.707 0.000761744 0.000235757 0.00229473 9.7783 3.02483 29.4442
1383 3 9.6 -49.0201 -59.6681 -16.3774 0.000665466 0.000796238 0.000194008 8.53858 10.2164 2.48899
1391 3 9.6 -7.15869 -83.1672 -128.404 0.000156176 0.0011731 0.001777 2.00487 15.0531 22.8018
1392 3 9.6 -39.2764 -80.5581 -96.4761 0.000493349 0.00112868 0.00142249 6.32994 14.4828 18.2545
1412 3 9.6 -38.6548 -105.314 -97.3197 0.000526685 0.00152701 0.00133611 6.75812 19.5945 17.1441
1422 3 9.6 -20.9893 -22.1188 -65.074 0.000206476 0.000304741 0.000870781 2.64835 3.91056 11.1731
1424 3 9.6 -48.3248 -163.679 -21.2314 0.00060838 0.00218723 0.000321805 7.80501 28.0652 4.12944
1435 3 9.6 -4.29803 -163.227 -16.1537 0.000134762 0.00204078 0.000215719 1.7318 26.1833 2.76774
1444 3 9.6 -65.1003 -65.6517 -37.4876 0.000810559 0.000938205 0.00045981 10.3991 12.0388 5.89887
1450 3 9.6 -93.2196 -30.0837 -123.229 0.00117358 0.000401023 0.00159003 15.0569 5.14533 20.4013
1455 3 9.6 -76.4023 -26.9718 -115.499 0.00106959 0.000319914 0.0015917 13.7244 4.10465 20.424
1458 3 9.6 -37.306 -47.711 -21.3083 0.000436694 0.000652702 0.000303586 5.6022 8.37522 3.89497
1460 3 9.6 -149.817 -8.68131 -77.9481 0.00205809 0.000119307 0.00107327 26.4087 1.53109 13.7719
1469 3 9.6 -60.8079 -98.8453 -18.4548 0.000796038 0.00130345 0.000186823 10.2139 16.7248 2.39702
1470 3 9.6 -118.111 -65.9872 -88.6233 0.00160984 0.000963366 0.00127123 20.6565 12.3621 16.3126
1475 3 9.6 -57.3356 -134.505 -33.2167 0.00076262 0.00181314 0.000476401 9.78536 23.2651 6.11299
1477 3 9.6 -83.5978 -24.6442 -56.211 0.00112789 0.000288663 0.000799824 14.4721 3.70278 10.2634
1487 3 9.6 -42.0435 -79.1449 -160.309 0.000535955 0.00107844 0.00209911 6.8767 13.8373 26.9334
1488 3 9.6 -114.673 -30.9844 -77.7574 0.00156451 0.00041429 0.00102151 20.0751 5.31517 13.1074
1490 3 9.6 -103.435 -86.3517 -30.6232 0.00147328 0.00121986 0.000441921 18.9056 15.6526 5.66954
1500 3 9.6 -21.6075 -118.757 -94.1637 0.000313575 0.00154364 0.00126419 4.02292 19.8059 16.2215
1518 3 9.6 -3.05856 -12.7528 -172.082 -4.667e-05 8.6968e-05 0.00236855 -0.598653 1.11458 30.3934
1519 3 9.6 -24.1607 -136.449 -75.2063 0.000273014 0.00175804 0.000985154 3.50218 22.5567 12.6406
1524 3 9.6 -148.267 -69.7949 -56.7828 0.00202973 0.0010246 0.000848999 26.0448 13.1468 10.8945
1526 3 9.6 -52.2812 -90.8523 -25.3072 0.000720121 0.00120874 0.000381905 9.24016 15.5094 4.89975
1532 3 9.6 -17.4822 -76.1845 -53.1755 0.000229602 0.00107516 0.000638402 2.94612 13.7963 8.18959
1536 3 9.6 -3.55812 -34.7402 -156.235 0.000119306 0.000623707 0.00203258 1.53288 8.00493 26.079
1545 3 9.6 -71.1945 -58.7489 -159.13 0.000923506 0.000782839 0.00206259 11.8494 10.0448 26.4648
1547 3 9.6 -72.9174 -39.862 -61.2498 0.000971454 0.000485315 0.000814317 12.4643 6.22669 10.449
1562 3 9.6 -79.4856 -125.791 -16.5745 0.00109355 0.00169872 0.000208122 14.0318 21.7968 2.67008
1566 3 9.6 -19.1264 -130.128 -108.429 0.00023068 0.00163622 0.00150642 2.96001 20.9933 19.3299
1567 3 9.6 -93.0744 -95.0065 -97.7859 0.00129681 0.00123492 0.00135944 16.6404 15.8444 17.4435
1568 3 9.6 -31.1838 -66.6913 -24.7647 0.000494547 0.000855303 0.000389484 6.34727 10.9746 4.99832
1575 3 9.6 -29.987 -95.4802 -7.46889 0.00038425 0.00130556 2.76111e-05 4.92946 16.7524 0.352947
1580 3 9.6 -118.918 -102.885 -33.0531 0.00163852 0.00140185 0.000561111 21.025 17.9873 7.20181
1582 3 9.6 -23.9469 -157.312 -81.1232 0.000276995 0.00206355 0.00110011 3.55335 26.4779 14.1159
1584 3 9.6 -65.0045 -149.058 -48.6566 0.0008689 0.00200169 0.000705953 11.1485 25.6847 9.05877
1588 3 9.6 -40.0558 -29.8608 -136.264 0.000624884 0.000486371 0.00176839 8.01864 6.24182 22.6892
1593 3 9.6 -70.3706 -84.7604 -131.595 0.000935352 0.00126654 0.00185298 12.0017 16.2534 23.7764
1604 3 9.6 -83.5196 -149.878 -0.404516 0.00121533 0.00200287 1.85232e-05 15.5946 25.6994 0.236533
1610 3 9.6 -59.9967 -53.8925 -47.6727 0.000686128 0.000723768 0.000651634 8.80221 9.28708 8.36083
1611 3 9.6 -58.7547 -0.55239 -143.433 0.000916918 -3.46358e-05 0.00190313 11.7671 -0.444379 24.4203
1628 3 9.6 -43.4395 -67.5374 -40.0489 0.000623629 0.000888472 0.000534845 8.00214 11.4002 6.86232
1644 3 9.6 -53.1106 -62.2255 -156.513 0.000681295 0.000930117 0.00205266 8.74171 11.9356 26.3368
1645 3 9.6 -41.1475 -97.8716 -5.16012 0.000652688 0.00138512 -1.17131e-05 8.37667 17.7737 -0.151523
1655 3 9.6 -78.6096 -78.0487 -76.3028 0.0010152 0.00110748 0.00102555 13.0259 14.2104 13.1591
1670 3 9.6 -88.773 -122.117 -49.3277 0.00122413 0.00169068 0.000748653 15.7071 21.6936 9.60692
1672 3 9.6 -63.8292 -88.4266 -95.4042 0.000877326 0.00112327 0.00133592 11.2572 14.4121 17.1428
1674 3 9.6 -145.777 -3.06832 -14.4386 0.00189627 4.45149e-06 0.000170259 24.3309 0.0567559 2.1839
1679 3 9.6 -125.371 -47.1781 -90.3364 0.00170697 0.000627629 0.00130173 21.9023 8.05357 16.7042
1680 3 9.6 -90.7042 -31.2621 -44.2896 0.00130693 0.000414518 0.000571461 16.7707 5.31865 7.33242
1685 3 9.6 -91.0581 -13.7076 -63.5346 0.00125897 0.00011586 0.000860642 16.1549 1.48588 11.0429
1688 3 9.6 -11.1001 -77.7869 -34.9779 0.000226995 0.00112782 0.000463951 2.91491 14.4745 5.95377
1690 3 9.6 -58.4143 -115.957 -45.6388 0.000871212 0.00156131 0.000725596 11.1814 20.0332 9.31175
1697 3 9.6 -117.192 -106.828 -5.51054 0.00160629 0.00148593 0.000177276 20.611 19.067 2.276
1704 3 9.6 -113.491 -34.4068 -51.5923 0.00151191 0.000367982 0.0006865 19.3996 4.72052 8.80828
1709 3 9.6 -67.9549 -80.9781 -51.1474 0.000856291 0.00115142 0.000740497 10.9865 14.7751 9.50212
1715 3 9.6 -139.44 -104.839 -17.4364 0.00193981 0.0014821 0.000264657 24.8908 19.0175 3.39632
1722 3 9.6 -125.086 -12.6185 -16.3832 0.00165034 0.00020408 0.000215068 21.1755 2.61877 2.75951
1723 3 9.6 -27.2518 -121.723 -77.0105 0.000349164 0.0015757 0.00111098 4.47914 20.2171 14.2553
1736 3 9.6 -86.3666 -6.84916 -104.879 0.00104653 0.000106376 0.00153539 13.4257 1.36501 19.7026
1745 3 9.6 -22.907 -4.21014 -106.331 0.000348592 0.000101022 0.00139085 4.47419 1.29667 17.8453
1751 3 9.6 -38.6014 -83.4279 -51.8717 0.000639473 0.0011861 0.000732874 8.20613 15.2211 9.40365
1761 3 9.6 -89.5793 -116.628 -107.207 0.00113893 0.00154955 0.00153952 14.6121 19.8833 19.7553
1762 3 9.6 -1.91698 -175.363 -47.8313 2.73515e-05 0.00228316 0.000614865 0.350611 29.2955 7.88898
1775 3 9.6 -25.1005 -60.6719 -17.0275 0.000344705 0.000687325 0.000147538 4.42322 8.81721 1.89178
1776 3 9.6 -105.531 -64.4413 -14.2663 0.00142126 0.000847284 0.0002432 18.2372 10.8712 3.12077
1779 3 9.6 -72.8096 -78.5584 -26.0947 0.000868571 0.00108274 0.00029926 11.1425 13.893 3.83891
1782 3 9.6 -154.512 -29.4642 -49.7429 0.00207708 0.000388852 0.00064118 26.6515 4.9896 8.22687
1785 3 9.6 -65.0985 -48.834 -2.70512 0.000856658 0.000596918 4.72501e-05 10.9921 7.65848 0.606328
1786 3 9.6 -112.415 -79.7619 -77.8773 0.00154969 0.00117037 0.00110537 19.8851 15.0185 14.184
1816 3 9.6 -57.2898 -135.354 -106.548 0.000706407 0.00180945 0.00150273 9.0636 23.217 19.2828
1826 3 9.6 -23.3997 -34.9431 -84.9381 0.000282295 0.000416082 0.00121766 3.6215 5.33828 15.625
1844 3 9.6 -128.811 -36.7178 -23.4433 0.00168462 0.000357027 0.000267001 21.6154 4.57964 3.4259
1849 3 9.6 -59.221 -166.491 -29.8969 0.000838553 0.00225368 0.000513703 10.7599 28.9184 6.59313
1876 3 9.6 -151.62 -29.411 -99.4713 0.00201695 0.000394227 0.0012314 25.8813 5.05805 15.7982
1879 3 9.6 -72.4661 -24.234 -71.2187 0.00101605 0.000283894 0.000954466 13.037 3.64222 12.2472
1883 3 9.6 -5.971 -126.772 -29.3012 8.87185e-05 0.00163655 0.000446944 1.13967 20.9982 5.73508
1903 3 9.6 -114.077 -106.872 -23.4085 0.00148143 0.00150911 0.000296305 19.0081 19.3647 3.80105
1916 3 9.6 -69.5558 -2.73155 -166.864 0.000968684 -2.69805e-05 0.00218918 12.4298 -0.346651 28.0889
1917 3 9.6 -14.7989 -162.369 -43.8525 0.000217549 0.00210568 0.000601919 2.79178 27.0179 7.72358
1926 3 9.6 -109.592 -62.6618 -58.9463 0.00148645 0.000852097 0.000810766 19.0729 10.9336 10.4031
1929 3 9.6 -100.184 -68.5482 -81.8454 0.00138871 0.000942171 0.00120078 17.8192 12.0894 15.4088
1939 3 9.6 -137.248 -98.5261 -51.1893 0.00186334 0.00133193 0.00070866 23.9086 17.09 9.09297
1940 3 9.6 -14.8335 -130.429 -91.7011 0.000187695 0.001668 0.00123409 2.40811 21.4008 15.8348
1944 3 9.6 -15.2376 -43.5105 -147.414 0.000218565 0.000829285 0.00191685 2.80481 10.6436 24.5944
1954 3 9.6 -135.814 -117.478 -38.8732 0.00180436 0.00152466 0.000523539 23.1515 19.563 6.71747
1955 3 9.6 -61.5824 -15.5028 -149.111 0.000845363 0.000186035 0.00190931 10.8471 2.38607 24.4979
1965 3 9.6 -38.7073 -57.6035 -167.338 0.000445532 0.000826454 0.00223956 5.71619 10.6045 28.7356
1966 3 9.6 -46.9832 -49.9968 -81.0431 0.000698984 0.000650635 0.00108595 8.96863 8.34785 13.9348
1969 3 9.6 -102.09 -22.3121 -150.612 0.00134802 0.000309052 0.00199708 17.2963 3.96579 25.6248
1972 3 9.6 -71.4345 -143.249 -5.47359 0.00100041 0.00188762 4.50593e-05 12.8376 24.2194 0.577826
1982 3 9.6 -110.243 -9.204 -75.131 0.00147633 8.3217e-05 0.000941883 18.9431 1.06776 12.0844
1985 3 9.6 -66.3387 -163.325 -47.3794 0.000858261 0.00220089 0.000638328 11.0122 28.2403 8.19054
1986 3 9.6 -90.6706 -89.8941 -10.334 0.00125096 0.00119529 0.000104163 16.0517 15.3368 1.33649
1987 3 9.6 -26.5779 -37.8918 -163.978 0.00037031 0.000716693 0.00225341 4.75182 9.19803 28.9147
1989 3 9.6 -159.288 -23.6666 -85.7577 0.00218257 0.000284484 0.00113461 28.0056 3.65068 14.5587
1990 3 9.6 -98.7193 -132.712 -10.9516 0.00128573 0.00191318 0.000203447 16.4975 24.5492 2.61104
1998 3 9.6 -128.848 -84.6531 -69.3714 0.00176424 0.00118477 0.00108465 22.638 15.203 13.9195
2000 3 9.6 -46.2965 -125.609 -72.7573 0.000620271 0.00153643 0.00105573 7.95938 19.7124 13.5459
2005 3 9.6 -148.103 -74.7171 -45.1166 0.00198619 0.00108705 0.0005783 25.4857 13.9498 7.42021
2006 3 9.6 -10.2459 -104.169 -67.3075 0.00012608 0.00150235 0.000958465 1.61779 19.2779 12.2987
2011 3 9.6 -36.7064 -116.394 -61.1724 0.000553971 0.00159864 0.000964829 7.10963 20.5149 12.3825
2017 3 9.6 -98.948 -151.134 -33.882 0.00132339 0.00196976 0.000418872 16.9805 25.274 5.37467
2021 3 9.6 -52.3677 -35.8984 -102.967 0.000645891 0.000508065 0.00141806 8.28683 6.52035 18.1958
2031 3 9.6 -54.4618 -95.8307 -147.186 0.000596218 0.00130017 0.00195658 7.64961 16.6835 25.1047
2036 3 9.6 -48.152 -43.9846 -91.504 0.000594145 0.000539544 0.00126974 7.62421 6.92265 16.2928
2061 3 9.6 -42.4576 -89.4714 -15.8437 0.000664006 0.00121456 0.000199699 8.52181 15.5845 2.5626
2082 3 9.6 -170.332 -55.2575 -53.6967 0.00221441 0.000800368 0.000728412 28.4138 10.2704 9.34601
2086 3 9.6 -12.9613 -14.6525 -55.9219 0.000135225 0.000217406 0.000849774 1.7354 2.7904 10.906
2104 3 9.6 -174.624 -22.4508 -22.5805 0.00226069 0.000375733 0.000524955 29.0053 4.82249 6.73869
2107 3 9.6 -172.024 -55.9438 -8.77308 0.00233543 0.000817157 4.99772e-05 29.9669 10.4848 0.64141
2109 3 9.6 -20.8126 -53.3197 -123.982 0.000224302 0.000762026 0.0017779 2.87716 9.77812 22.8136
2120 3 9.6 -5.82201 -11.3861 -124.727 6.69957e-05 0.000174071 0.00171853 0.859415 2.23421 22.0502
2155 3 9.6 -46.53 -111.408 -120.47 0.000499097 0.00157862 0.00164666 6.40301 20.2561 21.1283
2160 3 9.6 -70.9558 -29.954 -154.809 0.000897557 0.000545504 0.00199846 11.5149 7.00206 25.6392
2165 3 9.6 -37.6755 -22.4812 -71.4827 0.000566065 0.000359362 0.000998596 7.26422 4.6123 12.8136
2171 3 9.6 -68.2857 -17.5649 -127.266 0.000890825 0.00019357 0.00167316 11.4302 2.48319 21.4685
2181 3 9.6 -32.7585 -31.534 -13.7595 0.00040891 0.000424955 7.31185e-05 5.24592 5.45282 0.936486
2190 3 9.6 -170.406 -29.3429 -54.1265 0.00227798 0.000304195 0.00067821 29.2291 3.9031 8.70157
2194 3 9.6 -104.551 -48.2824 -22.0694 0.0014261 0.000634007 0.000263629 18.2991 8.13382 3.38187
2200 3 9.6 -69.3729 -129.855 -41.8978 0.000957141 0.0017128 0.000550032 12.2814 21.9772 7.05654
2210 3 9.6 -131.42 -29.4521 -107.802 0.00171149 0.000484167 0.00153729 21.9614 6.21365 19.7266
2211 3 9.6 -148.423 -20.8175 -3.54418 0.00188 0.000255265 9.79643e-05 24.121 3.27458 1.25761
2223 3 9.6 -106.768 -132.666 -31.4295 0.00149524 0.00183944 0.000411393 19.1864 23.602 5.27864
2233 3 9.6 -81.8789 -60.7307 -64.1245 0.00109781 0.000903371 0.000991049 14.087 11.5924 12.7176
2235 3 9.6 -108.751 -31.6413 -126.922 0.00149538 0.000451787 0.00161588 19.1887 5.79737 20.7326
2236 3 9.6 -93.9772 -39.9154 -60.0178 0.0012927 0.000493896 0.000797833 16.5877 6.33687 10.2373
2240 3 9.6 -48.3492 -7.79673 -23.209 0.000591064 7.97674e-05 0.000218386 7.58343 1.02225 2.80176
2243 3 9.6 -34.3981 -97.6904 -53.4868 0.000498757 0.00123026 0.000732763 6.40004 15.7828 9.4013
2246 3 9.6 -9.01983 -40.7291 -68.0026 3.37029e-05 0.000484521 0.000942631 0.430868 6.21636 12.0959
2261 3 9.6 -47.702 -44.417 -15.7442 0.000652618 0.000611007 0.000128994 8.37399 7.84063 1.65387
2263 3 9.6 -53.5657 -25.73 -110.313 0.000729264 0.000287603 0.0016423 9.35704 3.68967 21.0747
2264 3 9.6 -145.417 -87.7319 -7.58672 0.00194217 0.00127875 9.94725e-05 24.9203 16.4084 1.27622
2288 3 9.6 -108.314 -124.575 -54.5513 0.00150999 0.00163211 0.000728539 19.3755 20.9411 9.34822
2298 3 9.6 -36.1214 -167.112 -50.9428 0.000537281 0.00222907 0.000747057 6.89409 28.6011 9.58591
2306 3 9.6 -21.8202 -104.35 -99.102 0.000264346 0.00151495 0.00138865 3.39141 19.4417 17.8184
2340 3 9.6 -42.9385 -111.208 -42.5489 0.000591821 0.00136158 0.00064661 7.59361 17.4677 8.29788
2344 3 9.6 -61.9574 -86.7522 -147.083 0.000786254 0.00114609 0.0019649 10.0887 14.7049 25.2118
2355 3 9.6 -150.036 -61.4896 -78.0241 0.00199577 0.000942044 0.00106806 25.6082 12.0883 13.7043
2358 3 9.6 -80.6811 -107.914 -32.0101 0.00110655 0.00152953 0.000354013 14.1984 19.6271 4.54098
2363 3 9.6 -53.901 -25.5406 -84.8368 0.000633799 0.000365928 0.00111891 8.13107 4.69551 14.3566
2377 3 9.6 -60.353 -0.984025 -70.6604 0.000819723 -5.89424e-05 0.000942437 10.5174 -0.757488 12.092
2391 3 9.6 -23.7693 -113.862 -110.902 0.000344102 0.00153391 0.00158782 4.41465 19.6821 20.3737
2399 3 9.6 -15.0659 -169.528 -77.6217 0.000182886 0.00222472 0.00092748 2.34632 28.5468 11.8995
2417 3 9.6 -84.911 -32.7158 -85.073 0.00113208 0.000438496 0.00124552 14.5253 5.62655 15.9829
2430 3 9.6 -4.62033 -73.4495 -134.833 3.68038e-05 0.000900516 0.00187734 0.472575 11.5534 24.089
2450 3 9.6 -1.90989 -42.014 -88.7596 6.01699e-05 0.000556806 0.00117031 0.771601 7.14422 15.0166
2452 3 9.6 -9.58501 -184.533 -28.2367 0.000200912 0.00240656 0.000390682 2.57837 30.8793 5.01321
2471 3 9.6 -116.183 -29.3076 -109.758 0.00148312 0.000513283 0.00154892 19.0298 6.58779 19.8758
2481 3 9.6 -134.865 -46.6371 -17.7971 0.00180434 0.000537753 0.000168244 23.1522 6.8987 2.1578
2486 3 9.6 -113.731 -92.4053 -18.9032 0.00149035 0.00119476 0.000274978 19.122 15.3297 3.52828
2491 3 9.6 -135.468 -12.0984 -7.51896 0.00177702 0.000162381 6.7529e-05 22.801 2.08397 0.866394
2504 3 9.6 -103.466 -8.1809 -0.2552 0.0012939 2.4236e-05 9.11921e-05 16.6009 0.309152 1.17118
2508 3 9.6 -63.4129 -64.2869 -132.019 0.000722948 0.000765302 0.00180762 9.27428 9.81647 23.1946
2514 3 9.6 -123.578 -57.8598 -50.6644 0.0016691 0.00071853 0.000701658 21.4159 9.21919 9.00239
2521 3 9.6 -53.2713 -144.449 -90.0725 0.000851967 0.00191582 0.00121678 10.9333 24.5811 15.6126
2525 3 9.6 -21.2982 -123.03 -31.567 0.000202296 0.00167599 0.000386454 2.59348 21.5056 4.95775
2526 3 9.6 -109.596 -93.9738 -5.16525 0.00140946 0.00122056 9.64575e-05 18.0845 15.6599 1.23794