ITEM: TIMESTEP
10800
ITEM: NUMBER OF ATOMS
6100
ITEM: BOX BOUNDS ff ff ff
-1.0000000000000000e+03 1.0000000000000000e+03
-1.0000000000000000e+03 1.0000000000000000e+03
-1.0000000000000000e+03 1.0000000000000000e+03
ITEM: ATOMS id type diameter x y z vx vy vz fx fy fz
3 1 7.68 -174.357 -22.9647 -44.3703 0.00469981 0.000437579 0.00110213 15.4918 1.44197 3.63236
10 1 7.68 -56.213 -113.612 -93.2202 0.00128627 0.00319561 0.0025338 4.23752 10.5357 8.35203
20 1 7.68 -155.65 -37.5195 -89.9414 0.0040842 0.00111522 0.0023535 13.4634 3.6768 7.75774
25 1 7.68 -96.7242 -35.992 -151.144 0.00273393 0.000926136 0.00399571 9.01477 3.05096 13.1708
30 1 7.68 -4.93418 -24.0026 -19.9823 0.000230198 0.000796616 0.000136867 0.762656 2.62974 0.446398
35 1 7.68 -109.441 -74.4227 -10.875 0.00305459 0.00211118 0.000405973 10.07 6.96052 1.33791
44 1 7.68 -150.319 -89.1784 -61.656 0.00381151 0.00243814 0.00170371 12.563 8.03679 5.61542
57 1 7.68 -47.7798 -113.086 -3.85488 0.0013241 0.00283955 0.000160015 4.36581 9.35703 0.52801
62 1 7.68 -115.76 -26.8791 -6.71267 0.00307464 0.000657173 0.000338163 10.1344 2.16676 1.11644
67 1 7.68 -28.0206 -70.137 -126.767 0.000530413 0.00191069 0.00351266 1.74565 6.29818 11.5819
72 1 7.68 -87.4708 -129.711 -82.0321 0.00227454 0.00349757 0.00209337 7.49823 11.5289 6.89816
79 1 7.68 -9.9435 -130.062 -59.4917 0.000162949 0.00349596 0.00167768 0.535766 11.5232 5.53072
93 1 7.68 -163.461 -35.7425 -19.3148 0.00425496 0.000915009 0.000677904 14.0251 3.01426 2.23463
122 1 7.68 -74.4132 -76.5558 -62.5529 0.0020111 0.00221757 0.00180197 6.6291 7.31187 5.94298
125 1 7.68 -56.98 -20.1991 -166.938 0.00147058 0.00065841 0.00454555 4.84574 2.16958 14.9851
127 1 7.68 -79.4559 -32.0422 -13.1996 0.00212456 0.000635317 0.000111458 7.00413 2.09311 0.365115
149 1 7.68 -124.24 -113.767 -68.3551 0.00338485 0.00300498 0.00185414 11.1568 9.90378 6.11143
150 1 7.68 -68.7464 -105.769 -93.2602 0.00188214 0.00291494 0.00234684 6.20554 9.61072 7.734
157 2 8.64 -61.692 -75.1786 -17.7679 0.00155796 0.00213954 0.000378017 7.3113 10.0434 1.77409
162 2 8.64 -13.7391 -107.831 -150.377 0.000527309 0.00266191 0.00392466 2.47423 12.4892 18.4153
166 2 8.64 -37.8737 -31.804 -119.56 0.000998035 0.000817358 0.00328796 4.68338 3.83535 15.4343
178 2 8.64 -94.1484 -18.0753 -101.955 0.00249084 0.000771174 0.00290814 11.6892 3.62504 13.6526
187 2 8.64 -32.4177 -105.726 -140.214 0.000912945 0.0027513 0.0036553 4.28378 12.9106 17.1524
193 2 8.64 -120.235 -60.3017 -108.54 0.00317115 0.00171714 0.00303696 14.8821 8.05961 14.2539
208 2 8.64 -63.0401 -130.236 -56.8785 0.00172835 0.00356669 0.00188027 8.10948 16.7392 8.83043
215 2 8.64 -135.319 -9.16646 -51.5282 0.00352116 0.000106881 0.001257 16.5254 0.500034 5.89607
230 2 8.64 -95.0166 -58.9056 -46.5442 0.00275289 0.00159306 0.00133945 12.9257 7.47562 6.28631
237 2 8.64 -111.576 -17.2579 -27.0082 0.00301611 0.000539949 0.000652667 14.1558 2.53253 3.06174
253 2 8.64 -34.8972 -145.106 -21.0355 0.00106674 0.00372319 0.000528887 5.00767 17.4725 2.48114
255 2 8.64 -36.0802 -41.1739 -52.3038 0.00106807 0.000776606 0.00110233 5.02169 3.63188 5.16231
256 2 8.64 -26.4242 -90.8565 -75.8113 0.000847869 0.00279533 0.00210016 3.98269 13.1293 9.85846
257 2 8.64 -28.1562 -142.612 -1.81618 0.000646605 0.00384703 0.000291117 3.03361 18.0572 1.37159
265 2 8.64 -61.2097 -116.954 -66.6717 0.00173636 0.00317188 0.00194646 8.14987 14.8871 9.13927
276 2 8.64 -130.353 -38.5398 -46.9275 0.00350298 0.00099613 0.00119383 16.4409 4.67308 5.60083
288 2 8.64 -115.728 -21.5239 -39.9322 0.00313493 0.000575994 0.000974416 14.7154 2.70299 4.57028
296 2 8.64 -32.2631 -71.4514 -88.4132 0.000774734 0.00215755 0.00265001 3.63585 10.133 12.4451
305 2 8.64 -8.06486 -91.0337 -49.0208 0.000192554 0.00272579 0.00137082 0.90443 12.7991 6.43476
307 2 8.64 -113.021 -114.2 -64.8474 0.00303987 0.00308107 0.00177758 14.2671 14.4601 8.34338
315 2 8.64 -4.16788 -104.735 -102.521 2.97392e-05 0.00292705 0.00290581 0.136936 13.7391 13.6393
321 2 8.64 -49.0656 -109.237 -22.1425 0.00128201 0.00288373 0.000404548 6.01691 13.5329 1.89492
323 2 8.64 -57.5909 -30.4814 -128.938 0.0014501 0.000780318 0.00347884 6.80362 3.6621 16.3268
328 2 8.64 -91.9264 -65.8575 -36.8137 0.00266557 0.00177049 0.000737952 12.5178 8.31097 3.45881
340 2 8.64 -102.976 -56.1609 -79.7165 0.00270076 0.0016 0.00233078 12.675 7.51351 10.9424
352 2 8.64 -73.4482 -6.27435 -60.7434 0.00207492 3.07278e-05 0.00162542 9.73965 0.14201 7.62812
360 2 8.64 -168.288 -12.6879 -65.2977 0.00454685 0.000110332 0.00174332 21.3411 0.515509 8.18142
364 2 8.64 -146.809 -15.0102 -18.3935 0.00383073 0.000535546 0.000508794 17.9787 2.51534 2.38851
366 2 8.64 -18.0111 -62.3866 -165.136 0.000583005 0.00165879 0.00437265 2.73625 7.78259 20.5203
378 2 8.64 -20.1597 -12.8305 -82.7522 0.000415121 0.000573126 0.00223861 1.94509 2.6919 10.5072
381 2 8.64 -50.5685 -71.4697 -141.965 0.00119949 0.0019778 0.00389339 5.62687 9.28092 18.2741
394 2 8.64 -75.9103 -38.7841 -29.7218 0.00191959 0.00111289 0.000463995 9.00561 5.22686 2.17009
396 2 8.64 -36.631 -76.6762 -72.4781 0.00128327 0.00231178 0.00189042 6.0323 10.8592 8.87367
410 2 8.64 -128.538 -65.121 -69.6025 0.00341205 0.00200067 0.00213951 16.0156 9.39093 10.0433
413 2 8.64 -30.1476 -53.1595 -4.14986 0.000768237 0.00122858 -8.53312e-05 3.60491 5.76301 -0.403118
431 2 8.64 -12.5334 -0.719798 -4.69544 0.000402188 -5.70933e-05 0.000219148 1.88954 -0.269104 1.03185
445 2 8.64 -60.0536 -79.6448 -123.236 0.00130824 0.00211621 0.00344541 6.13511 9.93681 16.1712
449 2 8.64 -31.1154 -44.9058 -107.382 0.000790436 0.00105703 0.002917 3.70849 4.95574 13.6918
450 2 8.64 -43.8444 -176.152 -10.3644 0.0011594 0.00470663 0.000293106 5.43978 22.0917 1.37562
476 3 9.6 -9.77175 -1.29812 -71.5418 0.000325312 2.49871e-05 0.00193913 2.09462 0.16016 12.4833
480 3 9.6 -30.6414 -4.31436 -127.401 0.000887954 0.000100319 0.00330274 5.71729 0.645613 21.2576
485 3 9.6 -134.216 -23.2791 -56.0748 0.00351339 0.000475777 0.00120216 22.6192 3.054 7.72792
509 3 9.6 -89.4287 -151.763 -18.3595 0.00252249 0.00399316 0.000536507 16.2426 25.7071 3.45454
514 3 9.6 -23.6431 -73.2615 -78.2865 0.000455841 0.00221974 0.00241524 2.92853 14.3024 15.5619
518 3 9.6 -137.861 -53.9843 -38.9914 0.00356477 0.00126211 0.00110118 22.9471 8.12237 7.09091
519 3 9.6 -79.3762 -93.4987 -4.35632 0.00209727 0.00253365 8.40414e-05 13.501 16.312 0.539456
521 3 9.6 -144.849 -54.445 -96.6505 0.00379105 0.00162952 0.00259055 24.4063 10.4921 16.6783
529 3 9.6 -26.2748 -109.664 -66.0774 0.000499501 0.00303312 0.00225646 3.20504 19.5322 14.5498
530 3 9.6 -145.726 -46.7091 -63.6907 0.00399686 0.0014652 0.00181577 25.7366 9.44205 11.6881
552 3 9.6 -99.273 -37.8622 -86.7942 0.00268422 0.00104343 0.00270065 17.2856 6.71924 17.3931
554 3 9.6 -51.2308 -34.5925 -49.1668 0.00131991 0.000974745 0.00138068 8.49184 6.27764 8.8879
561 3 9.6 -54.7162 -57.236 -92.2221 0.00153893 0.00150421 0.00259588 9.90828 9.68138 16.7162
564 3 9.6 -75.7098 -140.436 -41.8094 0.00218777 0.00380228 0.00115082 14.0903 24.4818 7.40757
573 3 9.6 -67.3291 -2.67088 -104.216 0.00175643 -0.000118745 0.00303682 11.3089 -0.770311 19.5603
609 3 9.6 -102.614 -52.0499 -65.7011 0.00266145 0.00144298 0.00179478 17.1318 9.29089 11.5562
626 3 9.6 -163.389 -27.9125 -35.8346 0.00438321 0.000715114 0.000905596 28.2215 4.60158 5.82632
627 3 9.6 -54.6601 -87.523 -78.1105 0.0013861 0.00253661 0.00192542 8.9193 16.3334 12.392
639 3 9.6 -46.6904 -7.36441 -59.0257 0.00125517 9.41699e-05 0.0015127 8.08194 0.606461 9.73744
660 3 9.6 -148.222 -11.352 -105.206 0.00392765 0.000103365 0.00291085 25.2877 0.663514 18.7412
669 3 9.6 -39.6778 -52.6714 -153.989 0.000960689 0.00166024 0.00409066 6.18297 10.6887 26.333
689 3 9.6 -169.868 -29.0034 -12.0878 0.00428233 0.000857493 0.000296658 27.562 5.53236 1.90654
697 3 9.6 -148.789 -6.09052 -30.3748 0.0040003 0.00021797 0.000851235 25.7549 1.40632 5.48108
722 3 9.6 -40.7669 -174.718 -35.1825 0.00118233 0.00464425 0.00107331 7.6119 29.9016 6.91202
724 3 9.6 -45.4225 -86.8197 -129.966 0.00100593 0.00237365 0.00366014 6.46875 15.2815 23.5646
726 3 9.6 -164.553 -41.2503 -74.9051 0.00419747 0.00119795 0.00210234 27.023 7.71406 13.5395
731 3 9.6 -58.7273 -14.035 -49.4956 0.00153373 0.000141349 0.00138406 9.87046 0.906029 8.91236
732 3 9.6 -3.29824 -38.0445 -8.45901 0.000319231 0.000905131 2.32152e-05 2.06223 5.82398 0.145908
738 3 9.6 -78.7528 -46.1961 -144.643 0.00197328 0.00150709 0.00398927 12.7037 9.70439 25.6868
742 3 9.6 -130.171 -94.5435 -19.6838 0.00364669 0.00258186 0.000742386 23.4805 16.6224 4.78623
758 3 9.6 -1.68476 -130.242 -100.835 -6.60712e-05 0.00314423 0.0026923 -0.427409 20.2345 17.334
763 3 9.6 -65.4128 -136.821 -18.5309 0.00192128 0.00360413 0.000507974 12.373 23.2036 3.26901
770 3 9.6 -74.4821 -1.66171 -90.5725 0.00194096 1.16825e-05 0.00243447 12.494 0.0752903 15.676
773 3 9.6 -33.264 -98.6753 -114.177 0.000886116 0.00276402 0.0033012 5.70316 17.7969 21.2568
781 3 9.6 -22.2674 -137.518 -22.7728 0.000626128 0.00352528 0.000585631 4.03096 22.6883 3.77268
784 3 9.6 -154.064 -93.2845 -19.6261 0.00401388 0.00271072 0.000635981 25.8409 17.4561 4.09472
787 3 9.6 -49.7529 -97.5322 -57.6061 0.0014706 0.00254172 0.00168245 9.47211 16.3617 10.8362
788 3 9.6 -93.744 -42.325 -29.6023 0.00273747 0.00091777 0.000565769 17.6333 5.90131 3.62993
827 3 9.6 -162.042 -23.4159 -67.0938 0.00432116 0.000463153 0.00184218 27.8199 2.98178 11.861
828 3 9.6 -20.23 -87.5573 -15.3328 0.000408037 0.00233142 0.000307086 2.62487 15.0087 1.97369
829 3 9.6 -25.1236 -90.0161 -137.166 0.000710668 0.00249275 0.00380087 4.57438 16.0488 24.4679
846 3 9.6 -169.282 -42.9516 -51.8009 0.00446801 0.00104788 0.00130705 28.7653 6.74479 8.41372
863 3 9.6 -47.8198 -35.3278 -22.9075 0.00124078 0.000879317 0.00064758 7.98908 5.65719 4.16949
896 3 9.6 -4.7781 -43.0844 -164.266 0.000297981 0.00166364 0.00437719 1.92665 10.7238 28.1856
901 3 9.6 -75.6063 -137.38 -76.7765 0.00201153 0.00371771 0.00203705 12.9498 23.9327 13.1129
903 3 9.6 -62.5382 -32.4315 -32.0995 0.00163667 0.000838161 0.000698592 10.5339 5.39368 4.49116
906 3 9.6 -76.6131 -169.134 -21.4244 0.00217567 0.00437928 0.000733625 14.0101 28.1987 4.72304
916 3 9.6 -118.685 -19.6781 -64.9147 0.00291723 0.000483439 0.00172543 18.7746 3.11144 11.1102
925 3 9.6 -76.6121 -50.1398 -56.5271 0.00211285 0.00135359 0.00157473 13.6032 8.71383 10.1393
930 3 9.6 -77.8476 -99.5989 -111.999 0.00234687 0.00275031 0.0030235 15.1156 17.7057 19.4702
933 3 9.6 -123.494 -99.2146 -84.0948 0.00325531 0.00275669 0.00225455 20.9577 17.7473 14.5136
936 3 9.6 -54.1062 -51.3367 -161.599 0.00148879 0.00134553 0.00441928 9.5855 8.65967 28.4505
968 3 9.6 -61.4121 -133.018 -95.5626 0.00177471 0.00354023 0.00244829 11.4268 22.7903 15.7545
969 3 9.6 -45.3358 -85.9977 -106.482 0.00115333 0.00248068 0.00310335 7.42244 15.9715 19.9826
972 3 9.6 -82.4066 -62.3444 -49.8114 0.00222943 0.00175317 0.00150982 14.3536 11.2901 9.72363
989 3 9.6 -149.155 -49.8601 -83.9442 0.00395569 0.00131984 0.00230176 25.4683 8.49774 14.8214
992 3 9.6 -111.56 -11.5998 -45.5416 0.00302161 0.000122599 0.00123751 19.4531 0.786448 7.96639
1007 3 9.6 -101.07 -52.9548 -136.937 0.00271502 0.00159999 0.00374861 17.48 10.3019 24.1345
1008 3 9.6 -93.6624 -50.6495 -37.81 0.00269164 0.00138696 0.000976688 17.3405 8.93059 6.29179
1017 3 9.6 -18.1636 -16.9812 -176.379 0.000319739 0.000440504 0.00478544 2.04995 2.83069 30.814
1018 3 9.6 -79.3587 -46.1865 -132.411 0.00219026 0.00143278 0.00343854 14.1002 9.22861 22.1342
1019 3 9.6 -159.341 -14.732 -48.5434 0.00431666 0.000168165 0.00127692 27.7929 1.07849 8.21868
1023 3 9.6 -79.6654 -66.7093 -129.058 0.00237885 0.00164545 0.00343059 15.3267 10.5843 22.0857
1028 3 9.6 -41.299 -130.914 -62.2741 0.00107928 0.00361812 0.00172594 6.94804 23.2947 11.1116
1065 3 9.6 -97.1119 -101.924 -53.5094 0.00279036 0.00287246 0.00145182 17.9672 18.4953 9.34718
1077 3 9.6 -18.7543 -97.2467 -88.67 0.000383647 0.00278796 0.00232371 2.46531 17.9514 14.9551
1085 3 9.6 -26.8529 -28.827 -105.269 0.000696787 0.000785422 0.00282582 4.48463 5.05655 18.1955
1087 3 9.6 -94.2994 -57.565 -99.8427 0.00262716 0.00156472 0.00289241 16.9132 10.0737 18.6259
1109 3 9.6 -28.5159 -158.922 -69.7503 0.000851083 0.0043459 0.00171642 5.48018 27.9781 11.0427
1121 3 9.6 -87.14 -10.1242 -127.039 0.00229323 0.000316872 0.00326805 14.7664 2.03973 21.0348
1132 3 9.6 -1.74277 -69.8547 -66.0741 -0.000159647 0.00187129 0.00199346 -1.03762 12.0473 12.8368
1139 3 9.6 -135.291 -124.906 -2.25769 0.00367782 0.00318793 0.000131155 23.6779 20.5236 0.844917
1162 3 9.6 -64.6265 -151.595 -21.8026 0.00185786 0.0039739 0.00088253 11.9678 25.573 5.69136
1170 3 9.6 -77.4055 -8.65236 -138.736 0.00193424 0.000284753 0.0036724 12.4466 1.83536 23.643
1210 3 9.6 -1.43006 -79.5376 -118.735 -4.55368e-05 0.00203659 0.00303781 -0.298548 13.1094 19.5519
1215 3 9.6 -29.4253 -14.1633 -69.503 0.00071315 0.000330273 0.00181552 4.58657 2.12789 11.6875
1218 3 9.6 -39.2533 -23.454 -155.476 0.0012118 0.000727076 0.00412872 7.80868 4.68162 26.5787
1222 3 9.6 -117.424 -40.1372 -129.37 0.00334567 0.00111808 0.00340941 21.5428 7.19903 21.9468
1227 3 9.6 -16.1618 -2.17328 -27.8517 0.000466332 2.32828e-05 0.000515116 3.00125 0.147408 3.31121
1228 3 9.6 -77.7786 -78.0192 -95.3004 0.00221964 0.00210664 0.00267443 14.2928 13.5622 17.2183
1248 3 9.6 -45.1059 -152.336 -90.1902 0.00126834 0.00415062 0.00253519 8.16692 26.7286 16.3215
1249 3 9.6 -61.4939 -46.7631 -132.485 0.00156301 0.00133254 0.00354399 10.0608 8.58244 22.8171
1259 3 9.6 -75.283 -30.3657 -166.334 0.00194626 0.00112209 0.00459017 12.535 7.23626 29.5661
1296 3 9.6 -67.1188 -21.7248 -51.7269 0.00188986 0.000543724 0.00138921 12.169 3.49921 8.94618
1299 3 9.6 -20.4907 -71.6811 -11.3932 0.000538927 0.00197528 0.000252533 3.46808 12.7175 1.62266
1303 3 9.6 -70.618 -115.045 -84.1116 0.00204001 0.00322988 0.00210561 13.1354 20.7948 13.551
1332 3 9.6 -25.2373 -27.2687 -176.298 0.000665451 0.00128793 0.00468614 4.28007 8.31027 30.1657
1336 3 9.6 -16.086 -0.326663 -165.342 0.000451689 -0.000244191 0.0045691 2.90779 -1.58551 29.4226
1337 3 9.6 -159.705 -60.6991 -61.3772 0.00419896 0.00177913 0.00178298 27.033 11.4571 11.4795
1353 3 9.6 -30.0404 -38.6798 -32.6015 0.000784324 0.00103084 0.000935147 5.0474 6.63727 6.01883
1354 3 9.6 -1.55632 -92.4755 -113.867 -8.43751e-05 0.00260301 0.00307371 -0.548455 16.7595 19.7854
1355 3 9.6 -61.9368 -104.804 -57.9142 0.00167476 0.00281629 0.00179785 10.7833 18.1306 11.5787
1370 3 9.6 -5.50259 -23.1379 -117.458 0.000113262 0.000731397 0.00314423 0.729712 4.71366 20.2408
1375 3 9.6 -50.4286 -36.5372 -153.627 0.00140462 0.00117692 0.00410678 9.0451 7.57925 26.4381
1378 3 9.6 -41.7924 -17.9569 -177.259 0.00152716 0.000472292 0.00459752 9.84919 3.03982 29.5995
1383 3 9.6 -48.8901 -59.5126 -16.3395 0.00133323 0.0015952 0.00038861 8.58298 10.2688 2.50044
1391 3 9.6 -7.12817 -82.938 -128.057 0.000313124 0.00235052 0.00356042 2.01977 15.1366 22.9256
1392 3 9.6 -39.1801 -80.3376 -96.1981 0.000988357 0.00226145 0.0028505 6.36196 14.5616 18.3612
1412 3 9.6 -38.5519 -105.016 -97.0587 0.00105525 0.00305965 0.00267695 6.7944 19.7031 17.2353
1422 3 9.6 -20.949 -22.0593 -64.9039 0.000413445 0.00061064 0.00174461 2.65786 3.93292 11.2318
1424 3 9.6 -48.206 -163.251 -21.1686 0.00121861 0.00438225 0.000644811 7.8406 28.2153 4.15263
1435 3 9.6 -4.27167 -162.828 -16.1115 0.000270622 0.00408818 0.00043215 1.75307 26.3111 2.78145
1444 3 9.6 -64.942 -65.4685 -37.3978 0.00162365 0.00187982 0.00092099 10.448 12.1045 5.92529
1450 3 9.6 -92.9903 -30.0054 -122.919 0.00235091 0.00080339 0.00318549 15.1292 5.17126 20.506
1455 3 9.6 -76.1933 -26.9093 -115.188 0.002143 0.000640897 0.00318912 13.7983 4.12526 20.5345
1458 3 9.6 -37.2207 -47.5835 -21.249 0.000874661 0.00130776 0.000608143 5.62675 8.42067 3.91367
1460 3 9.6 -149.415 -8.658 -77.7384 0.00412363 0.000239089 0.00215045 26.5523 1.54026 13.8473
1469 3 9.6 -60.6524 -98.5907 -18.4183 0.00159483 0.00261147 0.000374267 10.2671 16.8128 2.40899
1470 3 9.6 -117.797 -65.799 -88.3749 0.00322541 0.00193035 0.00254721 20.7671 12.432 16.4041
1475 3 9.6 -57.1866 -134.151 -33.1236 0.00152792 0.00363272 0.000954521 9.83712 23.3893 6.14614
1477 3 9.6 -83.3775 -24.5878 -56.0547 0.00225973 0.000578079 0.00160262 14.5481 3.71729 10.3208
1487 3 9.6 -41.9388 -78.9342 -159.899 0.00107373 0.00216059 0.00420542 6.91188 13.909 27.0722
1488 3 9.6 -114.367 -30.9034 -77.5578 0.00313464 0.000829878 0.00204666 20.1835 5.3402 13.1776
1490 3 9.6 -103.148 -86.1134 -30.5369 0.00295212 0.00244408 0.000885198 19.0128 15.7367 5.69569
1500 3 9.6 -21.5463 -118.455 -93.9167 0.000628105 0.0030925 0.00253291 4.04133 19.9065 16.3088
1518 3 9.6 -3.06767 -12.7359 -171.62 -9.34616e-05 0.000173931 0.0047459 -0.600989 1.11446 30.5633
1519 3 9.6 -24.1074 -136.105 -75.0139 0.000546772 0.00352202 0.00197375 3.51651 22.6712 12.707
1524 3 9.6 -147.87 -69.5947 -56.6169 0.00406681 0.00205279 0.00170116 26.1866 13.2161 10.9555
1526 3 9.6 -52.1406 -90.6162 -25.2326 0.0014428 0.00242168 0.000765023 9.28958 15.5903 4.92314
1532 3 9.6 -17.4374 -75.9745 -53.0508 0.000460022 0.00215426 0.0012786 2.96192 13.8722 8.22428
1536 3 9.6 -3.53479 -34.6184 -155.838 0.000239512 0.00125008 0.00407195 1.55029 8.0564 26.2098
1545 3 9.6 -71.0141 -58.596 -158.727 0.00185019 0.00156843 0.00413226 11.9107 10.0978 26.6012
1547 3 9.6 -72.7276 -39.7672 -61.0907 0.00194616 0.000972222 0.00163158 12.527 6.25739 10.5058
1562 3 9.6 -79.2719 -125.459 -16.5339 0.002191 0.00340346 0.000416888 14.107 21.913 2.6825
1566 3 9.6 -19.0813 -129.808 -108.134 0.000462196 0.00327787 0.0030183 2.97613 21.0981 19.4353
1567 3 9.6 -92.821 -94.7652 -97.5203 0.00259836 0.00247392 0.00272372 16.7319 15.923 17.5367
1568 3 9.6 -31.0872 -66.5242 -24.6887 0.000991217 0.00171362 0.000780518 6.38826 11.0327 5.02824
1575 3 9.6 -29.912 -95.2252 -7.46351 0.000769632 0.00261581 5.50043e-05 4.95126 16.8428 0.348721
1580 3 9.6 -118.598 -102.611 -32.9434 0.00328299 0.0028086 0.00112468 21.1397 18.0821 7.24932
1582 3 9.6 -23.8928 -156.909 -80.9083 0.000554768 0.00413436 0.00220413 3.56835 26.6181 14.1914
1584 3 9.6 -64.8348 -148.667 -48.5187 0.00174072 0.00401055 0.00141451 11.2048 25.823 9.1091
1588 3 9.6 -39.9337 -29.7658 -135.919 0.00125211 0.000974709 0.00354268 8.06384 6.27978 22.8031
1593 3 9.6 -70.1878 -84.513 -131.233 0.001874 0.00253804 0.00371257 12.0652 16.349 23.9039
1604 3 9.6 -83.2822 -149.487 -0.400911 0.00243505 0.00401282 3.68424e-05 15.6792 25.8362 0.232576
1610 3 9.6 -59.8627 -53.7511 -47.5454 0.00137428 0.00145014 0.00130546 8.84127 9.33736 8.40304
1611 3 9.6 -58.5756 -0.559156 -143.061 0.00183751 -6.93839e-05 0.00381316 11.838 -0.446544 24.5535
1628 3 9.6 -43.3177 -67.3638 -39.9444 0.0012495 0.00178008 0.00107148 8.0455 11.4608 6.89681
1644 3 9.6 -52.9775 -62.0438 -156.112 0.00136495 0.00186375 0.00411223 8.78731 12.0035 26.4701
1645 3 9.6 -41.02 -97.601 -5.16242 0.00130812 0.00277533 -2.37576e-05 8.42951 17.872 -0.157945
1655 3 9.6 -78.4113 -77.8323 -76.1025 0.00203389 0.00221888 0.00205473 13.0931 14.2862 13.2293
1670 3 9.6 -88.5339 -121.787 -49.1814 0.00245257 0.00338734 0.00150012 15.7902 21.809 9.66128
1672 3 9.6 -63.6578 -88.2071 -95.1432 0.00175775 0.00225029 0.00267685 11.317 14.4845 17.2394
1674 3 9.6 -145.407 -3.06745 -14.4053 0.00379907 8.83322e-06 0.000340944 24.4567 0.0554021 2.19207
1679 3 9.6 -125.038 -47.0555 -90.082 0.00341989 0.00125754 0.00260837 22.0171 8.09765 16.7988
1680 3 9.6 -90.4488 -31.1811 -44.1779 0.00261873 0.000830464 0.0011449 16.8644 5.34618 7.37061
1685 3 9.6 -90.8121 -13.685 -63.3665 0.00252255 0.000231952 0.00172428 16.2436 1.49034 11.1006
1688 3 9.6 -11.0557 -77.5666 -34.8873 0.000455328 0.00226035 0.000929704 2.94079 14.5654 5.98855
1690 3 9.6 -58.2441 -115.652 -45.497 0.00174613 0.00312803 0.00145409 11.2529 20.1374 9.36767
1697 3 9.6 -116.878 -106.538 -5.47589 0.0032183 0.00297725 0.00035549 20.721 19.171 2.29413
1704 3 9.6 -113.195 -34.3349 -51.4582 0.00302912 0.000736991 0.00137533 19.5016 4.7403 8.85325
1709 3 9.6 -67.7877 -80.7531 -51.0027 0.00171542 0.00230711 0.00148375 11.0412 14.8574 9.55531
1715 3 9.6 -139.061 -104.549 -17.3847 0.00388661 0.0029695 0.000530349 25.0259 19.1195 3.41628
1722 3 9.6 -124.763 -12.5787 -16.3412 0.0033064 0.000408918 0.000430875 21.2859 2.63339 2.77376
1723 3 9.6 -27.1836 -121.416 -76.7935 0.000699306 0.0031567 0.00222587 4.49801 20.3195 14.3305
1736 3 9.6 -86.1621 -6.82838 -104.579 0.00209613 0.000213145 0.00307658 13.485 1.37259 19.8144
1745 3 9.6 -22.8389 -4.1904 -106.06 0.000698722 0.000202502 0.00278635 4.50387 1.30551 17.935
1751 3 9.6 -38.4765 -83.1962 -51.7285 0.00128141 0.00237684 0.00146832 8.25369 15.3108 9.45331
1761 3 9.6 -89.3568 -116.325 -106.906 0.00228146 0.00310471 0.00308478 14.6816 19.9917 19.8662
1762 3 9.6 -1.91164 -174.917 -47.7112 5.47184e-05 0.00457429 0.00123178 0.350898 29.4493 7.92846
1775 3 9.6 -25.0332 -60.5376 -16.9987 0.000690678 0.00137659 0.000295286 4.44768 8.85467 1.89582
1776 3 9.6 -105.254 -64.2758 -14.2188 0.00284768 0.00169743 0.000487306 18.3368 10.9262 3.13824
1779 3 9.6 -72.64 -78.3469 -26.0363 0.00173964 0.00216933 0.000599346 11.1906 13.9671 3.85482
1782 3 9.6 -154.106 -29.3882 -49.6176 0.00416147 0.000779107 0.00128456 26.7924 5.01667 8.26928
1785 3 9.6 -64.9312 -48.7174 -2.69589 0.00171637 0.00119577 9.46786e-05 11.051 7.69575 0.609771
1786 3 9.6 -112.112 -79.5332 -77.6613 0.00310499 0.00234514 0.00221481 19.9931 15.1032 14.2626
1816 3 9.6 -57.1518 -135 -106.254 0.00141519 0.00362517 0.00301097 9.10941 23.3382 19.3892
1826 3 9.6 -23.3446 -34.8618 -84.7002 0.000565421 0.000833496 0.00243982 3.6375 5.36397 15.7118
1844 3 9.6 -128.482 -36.6481 -23.3912 0.00337509 0.000714968 0.000534929 21.7282 4.59722 3.4438
1849 3 9.6 -59.0572 -166.051 -29.7965 0.00168011 0.0045155 0.00102961 10.8179 29.0753 6.63569
1876 3 9.6 -151.226 -29.334 -99.2308 0.0040413 0.000789755 0.00246662 26.024 5.08312 15.872
1879 3 9.6 -72.2676 -24.1786 -71.0322 0.00203565 0.000568672 0.00191235 13.1056 3.65924 12.3131
1883 3 9.6 -5.95365 -126.452 -29.2139 0.000178057 0.00327868 0.000895517 1.15167 21.1057 5.76649
1903 3 9.6 -113.787 -106.578 -23.3506 0.00296796 0.00302377 0.000593438 19.1062 19.4719 3.817
1916 3 9.6 -69.3665 -2.73682 -166.436 0.00194088 -5.41638e-05 0.00438584 12.4975 -0.350569 28.2332
1917 3 9.6 -14.7564 -161.958 -43.7349 0.000435948 0.00421863 0.00120601 2.80817 27.158 7.76545
1926 3 9.6 -109.302 -62.4954 -58.7879 0.00297811 0.00170723 0.00162438 19.1733 10.9923 10.4579
1929 3 9.6 -99.9123 -68.3641 -81.6108 0.00278238 0.0018877 0.00240609 17.9147 12.1542 15.4962
1939 3 9.6 -136.884 -98.2659 -51.0509 0.00373316 0.00266848 0.00141981 24.0336 17.1793 9.14104
1940 3 9.6 -14.7968 -130.103 -91.46 0.000375993 0.00334147 0.00247251 2.41976 21.5063 15.9183
1944 3 9.6 -15.1949 -43.3484 -147.04 0.000437982 0.00166215 0.00384018 2.82126 10.7127 24.7193
1954 3 9.6 -135.462 -117.18 -38.7709 0.00361491 0.00305462 0.00104888 23.2709 19.6649 6.75219
1955 3 9.6 -61.4172 -15.4665 -148.738 0.00169372 0.000372492 0.00382513 10.9049 2.3942 24.6234
1965 3 9.6 -38.6203 -57.4421 -166.901 0.000892507 0.00165585 0.00448684 5.74402 10.6612 28.8846
1966 3 9.6 -46.8466 -49.8697 -80.8309 0.00140038 0.00130342 0.00217591 9.01519 8.38924 14.0124
1969 3 9.6 -101.826 -22.2517 -150.222 0.00270068 0.000619257 0.00400115 17.3857 3.98806 25.7597
1972 3 9.6 -71.239 -142.881 -5.46479 0.0020046 0.00378162 9.01972e-05 12.9103 24.3425 0.579338
1982 3 9.6 -109.955 -9.18774 -74.947 0.00295786 0.000166724 0.00188683 19.0435 1.07335 12.1434
1985 3 9.6 -66.171 -162.895 -47.2547 0.00171945 0.00440958 0.0012789 11.0687 28.3909 8.23391
1986 3 9.6 -90.4263 -89.6606 -10.3137 0.00250641 0.00239474 0.000208681 16.1382 15.4171 1.34334
1987 3 9.6 -26.5055 -37.7518 -163.538 0.000741991 0.00143637 0.0045149 4.77827 9.25571 29.0705
1989 3 9.6 -158.861 -23.611 -85.5361 0.00437295 0.000570063 0.00227327 28.1563 3.67179 14.6369
1990 3 9.6 -98.4682 -132.338 -10.9119 0.00257599 0.00383328 0.000407745 16.5848 24.6827 2.62749
1998 3 9.6 -128.503 -84.4216 -69.1595 0.00353486 0.00237394 0.00217361 22.7612 15.288 14.0027
2000 3 9.6 -46.1753 -125.308 -72.5511 0.00124285 0.00307782 0.00211508 8.00401 19.808 13.6158
2005 3 9.6 -147.715 -74.5047 -45.0036 0.00397947 0.00217832 0.00115861 25.6223 14.0314 7.45904
2006 3 9.6 -10.2213 -103.875 -67.1203 0.00025261 0.0030102 0.0019204 1.62647 19.384 12.3655
2011 3 9.6 -36.5982 -116.081 -60.9839 0.00111025 0.00320348 0.00193366 7.15412 20.6346 12.4597
2017 3 9.6 -98.6894 -150.749 -33.8002 0.00265137 0.00394636 0.000839223 17.0689 25.4058 5.40318
2021 3 9.6 -52.2415 -35.7991 -102.69 0.00129388 0.00101821 0.0028412 8.3273 6.56059 18.2936
2031 3 9.6 -54.3453 -95.5767 -146.804 0.00119439 0.00260509 0.00391989 7.68736 16.7749 25.2343
2036 3 9.6 -48.036 -43.8792 -91.2559 0.00119052 0.0010809 0.00254405 7.6673 6.95764 16.381
2061 3 9.6 -42.3279 -89.2342 -15.8047 0.00133077 0.00243343 0.000400153 8.5751 15.6675 2.57717
2082 3 9.6 -169.9 -55.1011 -53.5544 0.00443667 0.00160372 0.00145929 28.5651 10.328 9.39358
2086 3 9.6 -12.9349 -14.61 -55.7559 0.000270995 0.000435769 0.0017031 1.74593 2.80888 10.9745
2104 3 9.6 -174.183 -22.3774 -22.4779 0.00452882 0.000753111 0.00105243 29.1486 4.85422 6.78743
2107 3 9.6 -171.568 -55.7842 -8.76332 0.00467918 0.00163712 0.000100164 30.1275 10.539 0.645451
2109 3 9.6 -20.7688 -53.1708 -123.635 0.000449179 0.00152683 0.00356228 2.88824 9.8316 22.9384
2120 3 9.6 -5.80892 -11.3521 -124.392 0.000134175 0.000348912 0.00344295 0.862956 2.24906 22.1637
2155 3 9.6 -46.4325 -111.099 -120.148 0.000999712 0.0031629 0.00329902 6.43226 20.3653 21.2381
2160 3 9.6 -70.7804 -29.8474 -154.419 0.00179782 0.00109354 0.00400314 11.5671 7.05087 25.7589
2165 3 9.6 -37.5649 -22.411 -71.2876 0.00113434 0.000720283 0.0020008 7.30678 4.6424 12.8831
2171 3 9.6 -68.1117 -17.5271 -126.939 0.00178475 0.000387693 0.00335216 11.49 2.49384 21.5814
2181 3 9.6 -32.6787 -31.4509 -13.7453 0.000819048 0.000851436 0.000146091 5.26959 5.48226 0.933641
2190 3 9.6 -169.961 -29.2834 -53.994 0.00456395 0.000609438 0.00135864 29.3833 3.92329 8.74443
2194 3 9.6 -104.272 -48.1585 -22.0179 0.00285733 0.00126995 0.000527995 18.3978 8.17107 3.39606
2200 3 9.6 -69.1859 -129.52 -41.7904 0.00191767 0.00343161 0.00110175 12.3467 22.0933 7.08909
2210 3 9.6 -131.085 -29.3575 -107.502 0.00342921 0.00097032 0.00308031 22.0817 6.25197 19.8373
2211 3 9.6 -148.056 -20.7676 -3.52504 0.00376621 0.000511245 0.000196416 24.2407 3.28834 1.26702
2223 3 9.6 -106.476 -132.307 -31.3491 0.0029959 0.00368529 0.000824225 19.2908 23.7256 5.30641
2233 3 9.6 -81.6644 -60.5542 -63.9309 0.00219965 0.00181016 0.00198589 14.1647 11.6583 12.7907
2235 3 9.6 -108.459 -31.553 -126.606 0.0029963 0.000905256 0.00323718 19.2957 5.82981 20.8372
2236 3 9.6 -93.7247 -39.8189 -59.862 0.00259014 0.000989431 0.00159849 16.679 6.36848 10.2918
2240 3 9.6 -48.2337 -7.78117 -23.1664 0.00118406 0.000159518 0.000437447 7.62058 1.02189 2.8148
2243 3 9.6 -34.3006 -97.45 -53.3437 0.000999357 0.00246415 0.00146788 6.43557 15.8527 9.44669
2246 3 9.6 -9.01326 -40.6344 -67.8184 6.71518e-05 0.000970596 0.00188877 0.425942 6.24632 12.1637
2261 3 9.6 -47.5745 -44.2977 -15.719 0.00130756 0.00122432 0.00025814 8.41873 7.88511 1.65678
2263 3 9.6 -53.4232 -25.6738 -109.992 0.00146102 0.00057607 0.00329084 9.4051 3.70632 21.1949
2264 3 9.6 -145.038 -87.482 -7.56729 0.00389114 0.00256212 0.000199263 25.0513 16.4975 1.28235
2288 3 9.6 -108.019 -124.257 -54.4089 0.0030254 0.00326975 0.00145968 19.4802 21.0476 9.39847
2298 3 9.6 -36.0165 -166.676 -50.7969 0.00107648 0.00446583 0.0014968 6.93107 28.7494 9.63776
2306 3 9.6 -21.7685 -104.054 -98.8307 0.000529511 0.00303594 0.00278226 3.40718 19.5583 17.9142
2340 3 9.6 -42.8229 -110.942 -42.4226 0.00118568 0.00272724 0.00129575 7.63291 17.5463 8.34675
2344 3 9.6 -61.8038 -86.5283 -146.7 0.00157529 0.00229602 0.00393666 10.1424 14.7789 25.3439
2355 3 9.6 -149.647 -61.3056 -77.8155 0.00399857 0.00188757 0.00213982 25.7438 12.1555 13.7754
2358 3 9.6 -80.4649 -107.616 -31.9409 0.002217 0.00306477 0.000708932 14.2734 19.7371 4.55841
2363 3 9.6 -53.7772 -25.4691 -84.6182 0.00126951 0.000733192 0.00224168 8.16795 4.7213 14.4312
2377 3 9.6 -60.1928 -0.995553 -70.4763 0.00164219 -0.000118371 0.00188804 10.5703 -0.766891 12.1531
2391 3 9.6 -23.7021 -113.562 -110.592 0.000689274 0.00307325 0.00318123 4.43526 19.787 20.4817
2399 3 9.6 -15.0302 -169.093 -77.4406 0.000366337 0.00445747 0.00185793 2.35723 28.7017 11.9567
2417 3 9.6 -84.6898 -32.6302 -84.8297 0.00226798 0.000878561 0.00249573 14.599 5.65684 16.0732
2430 3 9.6 -4.61314 -73.2736 -134.467 7.38165e-05 0.00180388 0.0037614 0.476612 11.6082 24.2185
2450 3 9.6 -1.89814 -41.9052 -88.5309 0.000120445 0.0011155 0.00234475 0.773621 7.18072 15.0962
2452 3 9.6 -9.54576 -184.063 -28.1604 0.00040263 0.00482164 0.000782806 2.59392 31.0438 5.04103
2471 3 9.6 -115.893 -29.2073 -109.455 0.00297136 0.00102878 0.0031036 19.1285 6.63058 19.9872
2481 3 9.6 -134.512 -46.5321 -17.7642 0.00361511 0.00107709 0.00033685 23.276 6.92917 2.16477
2486 3 9.6 -113.44 -92.1719 -18.8495 0.00298571 0.0023936 0.000550918 19.2188 15.4084 3.54684
2491 3 9.6 -135.121 -12.0667 -7.50577 0.00356021 0.000325432 0.000135275 22.92 2.09688 0.870583
2504 3 9.6 -103.213 -8.17619 -0.237373 0.00259203 4.81269e-05 0.000182959 16.6824 0.30246 1.18228
2508 3 9.6 -63.2717 -64.1374 -131.666 0.00144796 0.00153252 0.00362175 9.31407 9.8533 23.3202
2514 3 9.6 -123.252 -57.7194 -50.5273 0.00334391 0.00143949 0.00140561 21.526 9.26596 9.04665
2521 3 9.6 -53.1049 -144.075 -89.8347 0.0017073 0.00383809 0.00243781 10.9983 24.7055 15.6948
2525 3 9.6 -21.2587 -122.703 -31.4915 0.00040478 0.00335801 0.000774049 2.59706 21.6218 4.97975
2526 3 9.6 -109.32 -93.7353 -5.1464 0.00282374 0.00244509 0.000193318 18.1775 15.7366 1.24572
2532 3 9.6 -99.7644 -104.984 -90.1936 0.00293276 0.00275696 0.0022057 18.8826 17.7468 14.1957
2541 3 9.6 -32.0344 -154.337 -56.4008 0.000986803 0.00415943 0.00159977 6.35237 26.7803 10.3019
2544 3 9.6 -170.529 -34.3959 -66.5965 0.00452401 0.000850677 0.00178977 29.1295 5.47525 11.5221