LAMMPS simulation for granular ellipsoid
10448 atoms
1 atom types
5 25 xlo xhi
15 32.532224567 ylo yhi
0 20 zlo zhi

Atoms

1 1 0.308770 1500.000000 14.328245 16.619100 9.531529 
2 1 0.239335 1500.000000 13.616291 16.237265 10.563731 
3 1 0.422728 1500.000000 15.802277 18.995766 6.992840 
4 1 0.312154 1500.000000 8.751870 21.923049 9.568801 
5 1 0.268900 1500.000000 15.126165 23.453344 9.314313 
6 1 0.312131 1500.000000 18.129155 23.100346 10.102247 
7 1 0.315614 1500.000000 10.239084 18.071705 10.169704 
8 1 0.310285 1500.000000 16.220450 22.131297 11.116934 
9 1 0.110425 1500.000000 21.400059 19.310597 9.448559 
10 1 0.085746 1500.000000 15.647271 21.761120 8.776995 
11 1 0.233455 1500.000000 11.578383 17.435121 7.381127 
12 1 0.181384 1500.000000 12.524685 17.511879 8.892913 
13 1 0.098157 1500.000000 19.775828 18.344429 13.940725 
14 1 0.376909 1500.000000 15.687942 23.376001 9.927257 
15 1 0.121279 1500.000000 9.457367 22.114859 9.626399 
16 1 0.164125 1500.000000 17.184435 21.240146 11.311078 
17 1 0.345813 1500.000000 17.838836 16.504717 9.522992 
18 1 0.142696 1500.000000 14.195400 17.635257 8.916767 
19 1 0.128591 1500.000000 15.880396 19.333041 8.192144 
20 1 0.254678 1500.000000 15.295995 16.585579 8.857255 
21 1 0.145979 1500.000000 21.075153 22.072438 7.768921 
22 1 0.341014 1500.000000 11.447437 17.656056 11.175967 
23 1 0.288508 1500.000000 17.762099 22.409909 10.924568 
24 1 0.276563 1500.000000 18.393966 19.525227 11.011120 
25 1 0.157875 1500.000000 16.477860 17.982052 8.653099 
26 1 0.314236 1500.000000 21.441424 21.648832 11.012439 
27 1 0.181813 1500.000000 13.836847 21.332842 4.995910 
28 1 0.314984 1500.000000 10.280472 18.464059 6.653818 
29 1 0.225627 1500.000000 17.859320 22.245809 7.320118 
30 1 0.571077 1500.000000 14.093134 22.782455 14.010688 
31 1 0.367690 1500.000000 16.234466 18.969961 14.608273 
32 1 0.279708 1500.000000 21.555634 20.089184 12.616324 
33 1 0.348429 1500.000000 18.808135 18.508463 6.742496 
34 1 0.115742 1500.000000 17.632178 18.370463 12.902334 
35 1 0.135588 1500.000000 16.780162 17.469188 14.352390 
36 1 0.271594 1500.000000 21.562317 20.666086 10.008701 
37 1 0.342080 1500.000000 19.061512 18.697796 8.653335 
38 1 0.096541 1500.000000 13.051497 22.670718 6.182559 
39 1 0.165900 1500.000000 17.039158 21.852198 5.189905 
40 1 0.409978 1500.000000 12.981161 17.732949 11.610043 
41 1 0.255894 1500.000000 12.410531 21.287737 14.773486 
42 1 0.299023 1500.000000 12.297162 21.591074 9.628634 
43 1 0.599092 1500.000000 7.420323 19.066957 10.463126 
44 1 0.371825 1500.000000 11.175998 17.001214 11.679861 
45 1 0.120951 1500.000000 12.781014 23.303072 12.259198 
46 1 0.549420 1500.000000 14.156622 19.847710 4.640312 
47 1 0.189023 1500.000000 17.514984 22.791851 10.961724 
48 1 0.195739 1500.000000 19.016181 21.871053 12.903882 
49 1 0.336468 1500.000000 12.384291 19.307456 8.680322 
50 1 0.090584 1500.000000 10.335017 21.039912 14.052476 
51 1 0.247164 1500.000000 13.350890 19.130203 6.814532 
52 1 0.158577 1500.000000 16.775152 17.898966 7.008296 
53 1 0.273421 1500.000000 14.316679 18.626111 7.658826 
54 1 0.410552 1500.000000 13.687381 22.199447 6.639385 
55 1 0.109613 1500.000000 16.746584 22.649907 12.385801 
56 1 0.461809 1500.000000 18.985932 20.777344 5.681556 
57 1 0.507954 1500.000000 11.131562 22.531333 12.611325 
58 1 0.592547 1500.000000 12.021601 23.350017 9.204061 
59 1 0.255768 1500.000000 19.177613 20.444252 12.502871 
60 1 0.357534 1500.000000 10.399903 16.886878 9.740855 
61 1 0.218076 1500.000000 18.213217 17.150626 12.931156 
62 1 0.358483 1500.000000 16.435049 18.067685 9.964752 
63 1 0.213947 1500.000000 8.449867 19.276508 8.452726 
64 1 0.286204 1500.000000 16.396203 21.357213 13.293675 
65 1 0.198928 1500.000000 13.301856 19.293369 13.097201 
66 1 0.217561 1500.000000 17.737704 18.598761 6.948187 
67 1 0.408717 1500.000000 19.735973 20.319826 12.805640 
68 1 0.380090 1500.000000 16.934416 20.372766 13.416816 
69 1 0.287911 1500.000000 10.735728 23.308374 10.858665 
70 1 0.207564 1500.000000 16.225957 17.124205 7.318380 
71 1 0.234646 1500.000000 15.942085 19.679841 4.577442 
72 1 0.238908 1500.000000 20.382302 18.350320 12.288044 
73 1 0.244250 1500.000000 9.540356 19.613024 12.357482 
74 1 0.362617 1500.000000 14.017217 18.420560 13.020506 
75 1 0.197593 1500.000000 13.751131 22.258505 12.567754 
76 1 0.409859 1500.000000 20.798563 20.220278 12.203785 
77 1 0.216216 1500.000000 12.715579 18.021881 10.348251 
78 1 0.171548 1500.000000 16.782467 18.420673 13.607882 
79 1 0.109778 1500.000000 14.937826 18.504635 14.240059 
80 1 0.173195 1500.000000 18.084717 19.869665 10.307866 
81 1 0.161713 1500.000000 13.097408 18.577916 14.215860 
82 1 0.160990 1500.000000 15.747584 18.271717 14.210493 
83 1 0.255039 1500.000000 14.651306 21.813810 11.517240 
84 1 0.321698 1500.000000 16.344314 17.638510 12.883845 
85 1 0.192260 1500.000000 18.234352 17.725786 5.742271 
86 1 0.255039 1500.000000 14.651306 21.813810 11.517240 
87 1 0.281246 1500.000000 13.464187 23.068506 9.537797 
88 1 0.102234 1500.000000 18.958276 22.338441 11.810754 
89 1 0.231323 1500.000000 20.558307 19.278230 9.206630 
90 1 0.131582 1500.000000 15.092907 17.734086 13.915636 
91 1 0.219904 1500.000000 13.526165 18.252952 13.761233 
92 1 0.210846 1500.000000 14.222175 22.420160 10.202373 
93 1 0.318710 1500.000000 18.552104 16.957371 10.297496 
94 1 0.239907 1500.000000 12.628352 16.787438 12.390933 
95 1 0.246761 1500.000000 10.101629 20.386973 6.159046 
96 1 0.296952 1500.000000 9.600803 19.196732 10.476026 
97 1 0.301152 1500.000000 14.862573 21.389637 7.644940 
98 1 0.114971 1500.000000 10.600512 18.407406 12.016777 
99 1 0.177843 1500.000000 17.449989 22.774560 13.259025 
100 1 0.300949 1500.000000 13.851784 22.812556 6.378773 
