LAMMPS simulation for granular ellipsoid
10448 atoms
1 atom types
5 25 xlo xhi
15 32.532224567 ylo yhi
0 20 zlo zhi

Atoms #sphere 

1 1 0.466663 1.000000 9.461026 22.601613 11.504273 
2 1 0.204770 1.000000 21.020075 17.651027 9.699848 
3 1 0.359527 1.000000 14.818068 22.345920 9.944135 
4 1 0.152460 1.000000 13.513225 21.453852 7.917784 
5 1 0.428391 1.000000 9.025221 19.759925 9.009827 
6 1 0.263050 1.000000 9.982214 21.268387 12.593806 
7 1 0.160629 1.000000 12.184976 23.667355 10.230188 
8 1 0.295547 1.000000 9.312590 21.798846 8.966438 
9 1 0.197181 1.000000 18.669911 22.015218 6.013934 
10 1 0.353897 1.000000 14.716474 17.485046 6.937694 
11 1 0.176592 1.000000 12.409036 20.547039 13.099262 
12 1 0.296034 1.000000 14.213811 21.466253 9.730556 
13 1 0.080266 1.000000 9.967216 21.349807 7.456593 
14 1 0.362316 1.000000 12.188077 17.073598 13.094497 
15 1 0.176974 1.000000 16.283720 22.516513 13.334950 
16 1 0.302102 1.000000 11.223531 19.246403 8.981532 
17 1 0.201631 1.000000 11.158420 21.152282 7.729322 
18 1 0.294055 1.000000 17.833281 18.930745 11.248060 
19 1 0.191537 1.000000 11.139653 22.636585 7.900247 
20 1 0.305996 1.000000 14.038839 18.419908 9.721778 
21 1 0.403846 1.000000 19.383281 22.202964 12.831195 
22 1 0.206476 1.000000 17.178224 17.699166 13.635563 
23 1 0.139160 1.000000 19.057304 17.631828 6.389216 
24 1 0.355340 1.000000 16.376498 18.159203 14.771271 
25 1 0.383612 1.000000 19.368901 22.646330 11.004086 
26 1 0.181296 1.000000 16.684642 19.163009 14.017626 
27 1 0.352720 1.000000 11.643235 20.246747 10.938209 
28 1 0.202721 1.000000 12.556955 19.348395 4.511466 
29 1 0.242275 1.000000 13.584555 23.212170 7.639640 
30 1 0.321608 1.000000 9.449094 18.999671 12.824988 
31 1 0.388297 1.000000 18.827192 20.009200 8.247042 
32 1 0.148157 1.000000 8.581925 19.547070 10.695389 
33 1 0.511561 1.000000 10.633786 20.006903 11.060144 
34 1 0.171680 1.000000 17.604415 22.331211 13.609091 
35 1 0.146355 1.000000 16.972045 17.240053 10.725476 
36 1 0.222851 1.000000 12.252300 16.650405 11.490977 
37 1 0.375077 1.000000 11.437888 21.026098 7.628511 
38 1 0.179889 1.000000 13.950030 16.775654 9.670813 
39 1 0.691066 1.000000 12.604729 16.267462 11.054725 
40 1 0.251758 1.000000 18.143188 20.674209 9.808870 
41 1 0.252261 1.000000 12.409010 21.377416 10.368557 
42 1 0.203915 1.000000 11.879739 22.341511 14.024402 
43 1 0.118817 1.000000 17.369611 19.041554 14.914773 
44 1 0.443355 1.000000 21.289180 19.473535 6.571717 
45 1 0.414769 1.000000 8.166142 18.439054 11.745499 
46 1 0.345008 1.000000 17.978539 23.400924 7.972397 
47 1 0.220957 1.000000 9.269062 22.230610 11.019861 
48 1 0.206254 1.000000 10.812897 19.232046 12.103559 
49 1 0.220678 1.000000 19.481675 18.969044 12.417243 
50 1 0.356593 1.000000 12.137492 19.788314 4.557829 
51 1 0.346869 1.000000 12.397956 18.460248 5.516153 
52 1 0.391948 1.000000 18.141724 18.593692 8.401309 
53 1 0.145727 1.000000 10.340317 20.451255 10.107697 
54 1 0.066591 1.000000 20.186390 17.475521 7.785319 
55 1 0.500533 1.000000 16.912093 23.269175 12.946377 
56 1 0.717458 1.000000 8.661037 21.599198 11.157341 
57 1 0.274474 1.000000 19.784989 23.083698 10.906752 
58 1 0.331541 1.000000 12.000206 19.557452 4.772857 
59 1 0.193486 1.000000 11.505427 16.948826 9.242092 
60 1 0.553481 1.000000 14.933947 20.771616 11.786305 
61 1 0.326776 1.000000 18.807052 18.344011 9.001430 
62 1 0.247459 1.000000 11.971517 20.032653 4.620839 
63 1 0.241835 1.000000 16.606520 22.758249 5.917741 
64 1 0.122785 1.000000 16.269269 20.352146 14.909807 
65 1 0.089308 1.000000 20.925940 20.166717 11.097211 
66 1 0.416160 1.000000 18.036420 20.209741 14.638530 
67 1 0.134639 1.000000 12.483556 18.230470 9.595610 
68 1 0.328591 1.000000 15.727037 20.175094 5.345043 
69 1 0.287845 1.000000 10.800182 18.983291 13.752455 
70 1 0.260777 1.000000 19.897065 22.026828 7.254793 
71 1 0.100896 1.000000 13.045567 19.567920 4.614862 
72 1 0.315180 1.000000 21.545523 20.414973 8.372320 
73 1 0.170596 1.000000 10.322090 21.942071 11.755969 
74 1 0.185813 1.000000 17.564484 19.090795 6.763873 
75 1 0.305524 1.000000 19.133973 22.028883 12.648596 
76 1 0.331261 1.000000 15.278076 21.321435 10.809737 
77 1 0.297380 1.000000 14.858489 17.459834 12.665122 
78 1 0.256585 1.000000 14.788777 22.450821 10.652011 
79 1 0.259005 1.000000 12.770504 21.418497 14.785077 
80 1 0.227671 1.000000 21.091551 17.559077 10.276288 
81 1 0.355389 1.000000 18.909635 18.974317 12.675949 
82 1 0.214654 1.000000 13.668337 20.317742 5.669859 
83 1 0.282518 1.000000 9.901220 18.569314 13.503808 
84 1 0.070987 1.000000 13.208609 16.362484 11.190544 
85 1 0.109846 1.000000 11.627598 18.380196 9.228776 
86 1 0.229836 1.000000 8.169390 18.431340 9.701699 
87 1 0.162681 1.000000 10.113728 20.291081 5.898928 
88 1 0.058886 1.000000 13.679764 16.961593 7.534322 
89 1 0.185847 1.000000 11.686825 22.362135 11.139975 
90 1 0.099802 1.000000 18.234216 20.020406 13.704873 
91 1 0.293100 1.000000 15.888135 22.066419 9.208357 
92 1 0.321571 1.000000 19.648699 20.147679 9.721088 
93 1 0.162107 1.000000 14.101957 19.812998 10.090319 
94 1 0.156800 1.000000 11.871059 18.555575 14.441327 
95 1 0.244725 1.000000 10.944165 19.623618 5.559830 
96 1 0.460343 1.000000 10.566095 22.267040 9.672692 
97 1 0.243674 1.000000 13.329747 19.298682 5.469305 
98 1 0.199200 1.000000 11.320395 16.965208 9.671957 
99 1 0.229095 1.000000 13.695064 22.979732 13.021196 
100 1 0.351351 1.000000 15.806830 17.097305 8.577928 
101 1 0.257682 1.000000 16.541373 16.147340 9.232278 
102 1 0.283629 1.000000 16.226177 16.138471 11.242350 
103 1 0.286300 1.000000 14.412969 17.053274 10.283392 
104 1 0.199854 1.000000 17.435782 17.569043 7.126542 
105 1 0.367749 1.000000 13.855641 20.115950 10.322133 
106 1 0.325288 1.000000 16.419928 21.141214 6.762972 
107 1 0.357891 1.000000 18.920879 17.301273 9.574197 
108 1 0.338850 1.000000 15.058819 20.468028 15.639150 
109 1 0.216560 1.000000 16.685497 18.946254 14.817224 
110 1 0.276563 1.000000 18.393966 19.525227 11.011120 
111 1 0.354550 1.000000 15.376327 18.926675 6.862970 
112 1 0.206565 1.000000 12.815831 18.918440 10.736922 
113 1 0.239976 1.000000 18.001562 22.680750 11.156751 
114 1 0.387839 1.000000 11.632221 19.525991 12.099672 
115 1 0.607341 1.000000 12.414933 19.302302 9.740148 
116 1 0.176239 1.000000 19.718745 17.832144 13.462248 
117 1 0.330167 1.000000 17.117902 21.696342 10.509424 
118 1 0.315314 1.000000 19.983213 19.457458 12.926322 
119 1 0.099946 1.000000 14.169492 19.327568 15.060579 
120 1 0.153512 1.000000 18.454900 19.392140 6.880455 
121 1 0.167949 1.000000 15.510405 21.846163 14.840296 
122 1 0.271992 1.000000 13.115355 18.495269 12.586045 
123 1 0.265599 1.000000 21.989141 21.388780 11.971452 
124 1 0.178694 1.000000 16.220358 18.156171 11.939007 
125 1 0.208585 1.000000 13.621197 18.125647 13.347975 
126 1 0.527207 1.000000 14.460057 23.459620 7.399370 
127 1 0.208313 1.000000 16.921783 21.034013 9.703463 
128 1 0.099310 1.000000 9.496051 19.432698 10.311707 
129 1 0.321972 1.000000 13.373873 18.216139 6.552254 
130 1 0.416075 1.000000 15.624223 23.435688 12.856764 
131 1 0.238395 1.000000 15.698817 23.636604 10.535686 
132 1 0.345756 1.000000 11.561785 21.056568 14.500831 
133 1 0.158859 1.000000 15.472152 20.371491 14.154418 
134 1 0.260230 1.000000 15.957398 21.172848 9.988161 
135 1 0.347281 1.000000 11.882291 23.306869 10.693179 
136 1 0.284958 1.000000 17.396315 20.472977 10.034372 
137 1 0.203137 1.000000 11.620511 18.502902 14.241702 
138 1 0.236514 1.000000 11.084023 19.551653 6.595605 
139 1 0.260286 1.000000 12.730930 18.127664 7.861048 
140 1 0.256379 1.000000 19.894680 17.141727 12.022444 
141 1 0.326329 1.000000 15.622825 22.136413 9.064710 
142 1 0.279649 1.000000 16.441018 20.872065 10.474122 
143 1 0.309090 1.000000 10.698268 17.742186 11.994014 
144 1 0.318527 1.000000 8.631140 19.754836 10.137015 
145 1 0.173361 1.000000 17.314312 22.357429 12.743177 
146 1 0.192800 1.000000 20.412854 21.816116 10.438601 
147 1 0.149372 1.000000 14.701478 22.763053 6.802270 
148 1 0.402088 1.000000 14.496488 20.927104 7.377218 
149 1 0.086930 1.000000 15.706208 20.505161 9.064651 
150 1 0.131402 1.000000 18.184142 22.832618 6.855527 
151 1 0.303977 1.000000 15.150654 18.706445 7.503060 
152 1 0.253712 1.000000 16.830476 19.557650 5.812621 
153 1 0.118985 1.000000 16.709967 20.217401 9.203171 
154 1 0.191390 1.000000 15.517718 18.142617 11.280444 
155 1 0.121422 1.000000 21.003376 22.389301 11.113563 
156 1 0.368160 1.000000 17.544616 17.642946 11.667398 
157 1 0.335930 1.000000 19.602013 21.142534 13.706937 
158 1 0.221129 1.000000 13.579715 17.400097 12.908877 
159 1 0.388814 1.000000 8.606758 18.156801 8.180420 
160 1 0.010569 1.000000 17.204949 19.483567 9.849324 
161 1 0.266468 1.000000 13.633720 21.672150 12.506577 
162 1 0.326070 1.000000 14.828303 18.177168 12.123561 
163 1 0.201884 1.000000 14.622023 19.044705 11.815202 
164 1 0.269576 1.000000 16.644880 21.341851 8.769833 
165 1 0.228185 1.000000 16.463723 18.993268 9.746504 
166 1 0.128449 1.000000 10.604188 21.465047 10.505350 
167 1 0.347299 1.000000 9.504827 21.351390 6.335554 
168 1 0.278087 1.000000 19.388023 21.579463 7.728018 
169 1 0.100470 1.000000 10.408843 17.980020 6.496914 
170 1 0.170312 1.000000 18.612044 22.212539 13.596591 
171 1 0.257389 1.000000 9.604266 18.022256 12.915732 
172 1 0.088488 1.000000 17.012433 20.456638 9.884107 
173 1 0.258470 1.000000 11.011960 20.078763 10.842744 
174 1 0.111923 1.000000 13.358733 17.943583 14.796725 
175 1 0.214765 1.000000 16.596324 19.219871 4.822110 
176 1 0.237072 1.000000 11.129812 18.041393 10.879443 
177 1 0.243582 1.000000 12.734842 21.919432 11.104063 
178 1 0.127041 1.000000 21.408489 20.313816 11.362173 
179 1 0.157194 1.000000 14.167234 17.270034 10.453987 
180 1 0.108615 1.000000 15.861048 20.524494 15.679295 
181 1 0.091998 1.000000 20.755236 20.248010 10.836348 
182 1 0.151005 1.000000 10.711619 17.899416 9.152206 
183 1 0.234329 1.000000 12.158894 20.680308 15.022305 
184 1 0.154327 1.000000 15.882633 18.727895 5.225029 
185 1 0.365849 1.000000 19.867961 21.448932 9.549191 
186 1 0.201158 1.000000 14.869918 21.891174 13.973562 
187 1 0.434870 1.000000 14.456836 20.443644 9.979597 
188 1 0.131446 1.000000 16.872029 20.457239 14.556301 
189 1 0.235854 1.000000 16.248527 23.801804 10.057684 
190 1 0.226741 1.000000 11.780942 21.670673 10.358146 
191 1 0.172258 1.000000 11.795532 20.641370 6.415212 
192 1 0.241617 1.000000 14.151134 17.123181 8.104636 
193 1 0.165795 1.000000 8.856559 17.901870 11.460902 
194 1 0.621476 1.000000 10.574728 22.155307 10.895261 
195 1 0.285383 1.000000 17.772786 20.611577 11.768167 
196 1 0.289466 1.000000 20.100573 18.150387 9.815128 
197 1 0.230063 1.000000 13.990331 22.116452 8.571281 
198 1 0.332142 1.000000 9.600360 20.863230 12.983294 
199 1 0.113401 1.000000 11.957134 21.981369 6.529030 
200 1 0.259336 1.000000 17.897751 18.385590 9.335654 
201 1 0.121603 1.000000 22.181986 18.739905 11.090591 
202 1 0.321972 1.000000 13.464292 17.907205 6.559371 
203 1 0.301771 1.000000 11.701209 19.587419 12.491060 
204 1 0.191995 1.000000 13.920742 19.608599 10.482395 
205 1 0.268519 1.000000 10.871539 22.389409 9.947566 
206 1 0.128591 1.000000 20.883841 18.556431 6.675028 
207 1 0.375977 1.000000 19.226827 22.705622 8.276686 
208 1 0.228890 1.000000 13.156483 17.642134 13.104400 
209 1 0.337215 1.000000 16.517843 18.273536 13.959079 
210 1 0.176337 1.000000 15.561932 21.863998 5.269033 
211 1 0.439153 1.000000 12.336892 20.562947 8.144947 
212 1 0.624779 1.000000 11.250304 18.053752 11.476310 
213 1 0.345193 1.000000 13.237346 17.914773 5.563675 
214 1 0.376900 1.000000 22.049810 21.531022 9.915221 
215 1 0.364815 1.000000 15.543525 17.891124 12.765120 
216 1 0.122763 1.000000 17.738773 20.926269 14.441357 
217 1 0.198540 1.000000 16.720560 18.490936 8.389774 
218 1 0.199851 1.000000 19.013972 19.615166 10.901727 
219 1 0.473518 1.000000 19.151366 19.787216 6.925185 
220 1 0.119868 1.000000 12.220884 22.630304 13.321068 
221 1 0.300680 1.000000 18.112815 16.699548 10.736329 
222 1 0.201706 1.000000 18.664753 23.230044 11.078361 
223 1 0.290657 1.000000 18.788067 17.876497 8.564116 
224 1 0.348434 1.000000 12.686553 20.405020 8.927024 
225 1 0.281157 1.000000 16.194391 21.106650 10.100975 
226 1 0.154626 1.000000 14.359124 20.582319 5.328843 
227 1 0.174978 1.000000 20.339597 20.251755 5.913326 
228 1 0.293230 1.000000 14.386952 17.658665 8.708531 
229 1 0.520110 1.000000 17.783347 20.662054 13.844795 
230 1 0.318690 1.000000 16.523624 21.929803 13.762720 
231 1 0.369375 1.000000 9.150197 20.211435 12.758150 
232 1 0.266498 1.000000 10.572417 22.387281 9.106074 
233 1 0.329295 1.000000 14.186200 21.818021 13.418544 
234 1 0.162743 1.000000 15.552505 17.251092 10.076769 
235 1 0.262704 1.000000 18.477555 16.412405 9.566324 
236 1 0.132083 1.000000 7.859805 19.535057 12.254865 
237 1 0.281977 1.000000 11.318770 20.943521 9.303666 
238 1 0.278008 1.000000 18.743224 21.926309 12.465606 
239 1 0.494227 1.000000 9.797780 19.029228 8.949693 
240 1 0.268004 1.000000 8.682257 18.891320 12.924272 
241 1 0.598439 1.000000 12.025803 23.413282 12.033591 
242 1 0.426469 1.000000 12.580251 19.263593 6.152973 
243 1 0.492895 1.000000 13.383396 16.128746 9.798156 
244 1 0.254707 1.000000 12.022591 21.647212 9.626827 
245 1 0.335747 1.000000 18.492477 23.195295 9.009737 
246 1 0.203304 1.000000 8.404620 19.880280 11.323278 
247 1 0.231653 1.000000 16.538547 19.716833 8.426615 
248 1 0.187538 1.000000 19.514441 22.104090 13.557176 
249 1 0.074971 1.000000 17.709948 19.655799 5.201003 
250 1 0.154309 1.000000 12.772250 19.876613 8.362054 
251 1 0.154988 1.000000 11.128820 21.689784 13.745207 
252 1 0.270413 1.000000 11.897135 21.899687 7.423159 
253 1 0.434906 1.000000 9.078927 18.808426 11.259873 
254 1 0.325851 1.000000 16.947298 21.514609 12.607731 
255 1 0.247550 1.000000 13.370598 22.102187 12.020698 
256 1 0.257736 1.000000 12.697430 20.418565 11.154709 
257 1 0.279197 1.000000 18.729460 20.599499 6.183593 
258 1 0.358047 1.000000 22.330809 20.145551 11.439858 
259 1 0.248350 1.000000 13.789779 16.946147 11.293773 
260 1 0.401764 1.000000 16.037444 22.481423 8.816884 
261 1 0.176618 1.000000 10.226354 21.060513 6.129158 
262 1 0.149267 1.000000 20.173412 18.895623 11.048643 
263 1 0.233207 1.000000 12.775204 20.106088 15.436707 
264 1 0.095056 1.000000 14.255097 19.412219 5.001915 
265 1 0.208430 1.000000 11.753639 19.716726 12.882094 
266 1 0.173979 1.000000 14.718977 16.733983 7.338887 
267 1 0.202593 1.000000 13.899597 19.854027 5.984034 
268 1 0.219925 1.000000 19.440581 18.741575 8.220242 
269 1 0.124192 1.000000 12.838018 18.699619 14.602491 
270 1 0.239597 1.000000 21.199970 18.169337 9.061608 
271 1 0.141519 1.000000 11.014829 20.208974 11.729967 
272 1 0.158216 1.000000 18.634419 20.517023 9.042906 
273 1 0.262568 1.000000 19.268761 16.993161 9.320977 
274 1 0.258748 1.000000 19.269207 19.782649 8.755899 
275 1 0.300506 1.000000 15.571732 23.871562 10.781328 
276 1 0.352047 1.000000 15.353603 23.608999 9.171354 
277 1 0.060287 1.000000 20.525762 21.944579 10.431666 
278 1 0.262423 1.000000 21.368424 20.093250 11.006450 
279 1 0.127016 1.000000 21.899660 19.640892 11.514030 
280 1 0.405094 1.000000 14.322234 18.468217 12.583276 
281 1 0.113703 1.000000 19.146585 21.706231 9.984113 
282 1 0.289227 1.000000 19.971211 19.556904 8.359754 
283 1 0.287949 1.000000 14.151317 20.544513 10.144219 
284 1 0.281103 1.000000 12.914231 18.687827 13.444044 
285 1 0.283173 1.000000 9.732272 18.072777 9.931002 
286 1 0.115515 1.000000 20.170647 19.727883 10.707969 
287 1 0.253249 1.000000 16.392916 20.606354 8.724253 
288 1 0.178742 1.000000 11.056364 21.872991 7.260792 
289 1 0.245402 1.000000 16.873197 21.425744 9.760377 
290 1 0.267197 1.000000 14.848191 18.000273 5.059701 
291 1 0.224020 1.000000 16.471352 22.782937 10.782960 
292 1 0.149876 1.000000 21.064248 18.957183 7.684497 
293 1 0.210741 1.000000 15.852926 21.414121 5.322428 
294 1 0.303424 1.000000 19.708901 21.432894 12.964605 
295 1 0.518586 1.000000 16.583493 20.051576 6.230786 
296 1 0.304574 1.000000 15.915536 19.545976 8.023273 
297 1 0.234646 1.000000 15.762516 19.582903 4.461612 
298 1 0.395966 1.000000 14.734608 19.303414 5.313722 
299 1 0.185706 1.000000 17.956379 20.800077 15.112356 
300 1 0.280499 1.000000 10.975788 21.231038 10.312914 
301 1 0.426093 1.000000 8.565425 21.089422 8.620320 
302 1 0.120131 1.000000 18.338727 22.933228 9.934764 
303 1 0.308194 1.000000 20.691935 18.209385 6.896278 
304 1 0.099754 1.000000 19.624548 21.327853 10.933170 
305 1 0.319071 1.000000 15.333999 22.935697 13.701944 
306 1 0.160014 1.000000 13.043957 23.185633 11.865200 
307 1 0.306731 1.000000 18.061641 22.507666 8.250438 
308 1 0.374435 1.000000 15.882099 20.160660 4.363287 
309 1 0.306378 1.000000 13.656509 20.867172 5.772579 
310 1 0.186202 1.000000 14.025891 22.137174 5.926015 
311 1 0.503801 1.000000 20.279960 21.312198 12.974315 
312 1 0.253635 1.000000 16.433703 21.889947 10.155256 
313 1 0.224123 1.000000 16.493014 16.772078 12.680474 
314 1 0.197181 1.000000 18.619085 22.201004 5.971735 
315 1 0.198359 1.000000 13.854086 21.655926 6.223802 
316 1 0.517238 1.000000 10.372673 21.615621 6.433455 
317 1 0.563254 1.000000 14.692102 19.743621 5.128152 
318 1 0.183882 1.000000 20.085467 21.499350 11.274390 
319 1 0.409924 1.000000 17.345013 18.252511 9.961633 
320 1 0.076930 1.000000 7.994130 19.683815 11.244798 
321 1 0.338095 1.000000 12.496730 19.106163 14.657175 
322 1 0.133928 1.000000 15.317391 22.602472 8.463428 
323 1 0.150185 1.000000 18.634559 22.148105 13.099009 
324 1 0.476427 1.000000 9.716260 21.580740 8.150259 
325 1 0.259064 1.000000 14.412656 21.210192 7.088636 
326 1 0.238750 1.000000 12.789634 19.494207 9.781850 
327 1 0.039429 1.000000 22.233050 19.972027 11.724248 
328 1 0.196092 1.000000 21.915094 19.783262 10.336619 
329 1 0.183669 1.000000 10.304615 21.771113 7.171139 
330 1 0.154753 1.000000 9.555212 20.189229 11.362097 
331 1 0.221188 1.000000 16.148169 18.416777 12.712623 
332 1 0.044145 1.000000 16.486707 19.220240 6.488631 
333 1 0.155604 1.000000 18.177772 18.711599 8.767981 
334 1 0.205608 1.000000 11.893015 18.140444 13.874959 
335 1 0.164310 1.000000 13.301621 19.510698 11.342982 
336 1 0.116659 1.000000 12.390173 16.826805 10.058572 
337 1 0.327225 1.000000 15.783094 20.517900 14.085091 
338 1 0.226729 1.000000 12.083732 16.804427 9.131531 
339 1 0.117370 1.000000 18.577044 19.852296 15.351259 
340 1 0.385957 1.000000 16.153622 22.840138 7.869758 
341 1 0.090679 1.000000 13.831849 23.620634 11.608809 
342 1 0.330008 1.000000 21.608220 21.867456 8.697215 
343 1 0.491022 1.000000 20.363657 18.906942 6.108756 
344 1 0.185847 1.000000 11.732062 22.241203 11.273646 
345 1 0.237400 1.000000 17.066010 20.443126 7.718635 
346 1 0.385806 1.000000 9.178941 21.061994 11.379192 
347 1 0.454097 1.000000 12.984733 16.724527 9.422658 
348 1 0.402290 1.000000 20.836507 21.367174 11.245866 
349 1 0.237658 1.000000 16.682283 18.122861 9.442105 
350 1 0.152904 1.000000 18.761497 21.294518 9.863875 
351 1 0.646269 1.000000 15.927825 17.754826 9.023456 
352 1 0.209210 1.000000 14.013430 20.547901 9.285895 
353 1 0.077671 1.000000 16.656668 18.815420 15.097452 
354 1 0.419966 1.000000 13.469961 18.001230 8.516102 
355 1 0.669760 1.000000 18.610821 19.041843 15.051592 
356 1 0.202060 1.000000 17.688569 19.025300 9.841933 
357 1 0.323763 1.000000 9.441210 17.426006 8.259138 
358 1 0.158301 1.000000 12.393838 23.004929 11.156743 
359 1 0.085795 1.000000 19.122375 20.646502 11.140530 
360 1 0.212979 1.000000 9.088537 18.955032 10.730881 
361 1 0.336597 1.000000 10.525412 21.100572 9.538976 
362 1 0.209616 1.000000 13.056812 19.762327 10.155535 
363 1 0.309308 1.000000 13.764094 23.120513 9.635335 
364 1 0.296754 1.000000 9.832257 22.402577 11.942266 
365 1 0.285954 1.000000 15.820118 22.327531 8.457625 
366 1 0.115198 1.000000 12.143871 22.500166 6.036864 
367 1 0.245332 1.000000 19.927599 17.852065 6.872598 
368 1 0.717860 1.000000 22.536048 21.120459 10.753745 
369 1 0.112588 1.000000 15.888277 20.075851 15.450143 
370 1 0.229141 1.000000 19.317115 20.973523 8.459613 
371 1 0.267300 1.000000 17.881936 19.977303 4.653990 
372 1 0.178443 1.000000 10.283193 20.890698 11.504562 
373 1 0.447448 1.000000 16.827088 22.614452 14.077623 
374 1 0.380321 1.000000 11.372484 19.940891 7.987917 
375 1 0.503854 1.000000 18.947311 20.100421 7.576921 
376 1 0.390119 1.000000 14.805951 17.809664 6.720663 
377 1 0.165168 1.000000 10.520483 20.447791 7.324634 
378 1 0.191922 1.000000 12.824308 20.996409 12.272685 
379 1 0.424159 1.000000 11.755872 21.005530 5.244033 
380 1 0.254047 1.000000 14.717831 23.367066 12.119834 
381 1 0.164246 1.000000 14.749183 19.275075 10.287620 
382 1 0.299812 1.000000 12.701834 16.852427 10.685767 
383 1 0.165111 1.000000 18.279500 21.652470 7.887615 
384 1 0.116490 1.000000 14.009338 21.957437 5.842140 
385 1 0.184330 1.000000 17.508853 20.669141 12.534329 
386 1 0.794981 1.000000 15.236345 21.565971 6.688988 
387 1 0.457345 1.000000 10.115089 19.052447 10.888669 
388 1 0.222291 1.000000 9.416793 20.158511 11.692448 
389 1 0.196789 1.000000 18.198236 19.754642 8.299522 
390 1 0.532591 1.000000 20.387499 22.190165 10.094733 
391 1 0.154747 1.000000 10.529997 21.770738 8.619631 
392 1 0.255280 1.000000 19.895368 21.713945 9.361140 
393 1 0.470420 1.000000 10.977271 21.482261 5.509951 
394 1 0.130742 1.000000 15.863302 23.184694 7.227471 
395 1 0.422377 1.000000 19.481532 18.753051 11.624475 
396 1 0.160631 1.000000 16.075491 17.811866 11.698246 
397 1 0.240422 1.000000 21.499973 20.642505 7.262477 
398 1 0.457404 1.000000 15.237703 19.541243 4.660362 
399 1 0.147924 1.000000 13.037259 20.351211 15.258870 
400 1 0.053876 1.000000 10.297792 21.043311 10.628817 
401 1 0.225462 1.000000 18.679147 23.113833 10.574344 
402 1 0.550291 1.000000 12.014971 20.333499 13.065959 
403 1 0.490702 1.000000 21.217689 19.139043 12.513490 
404 1 0.195652 1.000000 18.089966 18.640426 6.637399 
405 1 0.202486 1.000000 22.038402 20.021689 9.054419 
406 1 0.373178 1.000000 13.674677 22.169881 7.411519 
407 1 0.328881 1.000000 19.877483 21.509947 13.284813 
408 1 0.294096 1.000000 11.613053 22.712466 11.151555 
409 1 0.183699 1.000000 14.293800 16.574662 11.184227 
410 1 0.206218 1.000000 17.887603 21.565099 11.179690 
411 1 0.398686 1.000000 20.610395 21.686202 9.824268 
412 1 0.450123 1.000000 17.892403 22.283474 6.736371 
413 1 0.153611 1.000000 16.138202 22.387936 7.880217 
414 1 0.174922 1.000000 21.329063 19.053545 10.783278 
415 1 0.224599 1.000000 11.269797 18.985705 14.199741 
416 1 0.261565 1.000000 12.017623 18.882928 9.788908 
417 1 0.289630 1.000000 19.626872 20.448119 9.669600 
418 1 0.193400 1.000000 14.973437 19.264237 7.319223 
419 1 0.186454 1.000000 13.992524 23.744677 10.812824 
420 1 0.283451 1.000000 9.694491 21.582478 13.586849 
421 1 0.219833 1.000000 11.233003 22.039004 10.154520 
422 1 0.697688 1.000000 20.066199 22.638268 12.141245 
423 1 0.391097 1.000000 18.288336 18.515349 9.151711 
424 1 0.197985 1.000000 16.224622 20.326143 10.676647 
425 1 0.232401 1.000000 14.379092 18.142132 7.935002 
426 1 0.588553 1.000000 14.893652 18.846142 14.047228 
427 1 0.276219 1.000000 17.481646 19.548595 15.248735 
428 1 0.262890 1.000000 13.512913 20.495985 14.751596 
429 1 0.207297 1.000000 14.185098 17.870266 6.008916 
430 1 0.228292 1.000000 10.379728 20.845079 8.599093 
431 1 0.513407 1.000000 18.205585 19.829235 14.983141 
432 1 0.328147 1.000000 17.167499 18.951484 13.041681 
433 1 0.441204 1.000000 12.040938 17.420799 13.502327 
434 1 0.143066 1.000000 13.922699 21.501988 6.598979 
435 1 0.207596 1.000000 12.864520 17.095787 9.711627 
436 1 0.303476 1.000000 14.699999 18.925776 7.946580 
437 1 0.178335 1.000000 13.426969 17.071436 7.681088 
438 1 0.196156 1.000000 12.340761 20.017434 6.228076 
439 1 0.269761 1.000000 11.281366 21.729218 9.827121 
440 1 0.160673 1.000000 19.285487 20.997251 9.971171 
441 1 0.345162 1.000000 11.033977 21.108995 12.257758 
442 1 0.160751 1.000000 10.951895 18.440558 8.239143 
443 1 0.116377 1.000000 22.770147 19.744453 11.248316 
444 1 0.392500 1.000000 13.671049 16.973063 9.750668 
445 1 0.428735 1.000000 12.158398 21.636201 12.319004 
446 1 0.445079 1.000000 13.944618 22.463662 6.210336 
447 1 0.281073 1.000000 12.238779 20.167995 5.920457 
448 1 0.196042 1.000000 14.986191 18.351273 14.626766 
449 1 0.120609 1.000000 13.713663 18.320515 7.797446 
450 1 0.094391 1.000000 16.551886 16.619165 7.725555 
451 1 0.248210 1.000000 21.186871 18.634818 11.964158 
452 1 0.311675 1.000000 20.732787 21.035375 12.615653 
453 1 0.137422 1.000000 9.838668 20.627084 12.405748 
454 1 0.265541 1.000000 16.439767 21.624366 14.694346 
455 1 0.156449 1.000000 19.142761 18.441805 9.237699 
456 1 0.223718 1.000000 10.423541 20.291237 11.883893 
457 1 0.229972 1.000000 14.750224 22.520287 13.252646 
458 1 0.191264 1.000000 9.855347 22.198707 8.115691 
459 1 0.274136 1.000000 12.412214 22.874249 7.751978 
460 1 0.260005 1.000000 21.087715 18.206290 10.092266 
461 1 0.379238 1.000000 12.686519 18.794360 10.982162 
462 1 0.115681 1.000000 17.251829 23.402439 7.633434 
463 1 0.373754 1.000000 20.246139 19.041291 6.888636 
464 1 0.106515 1.000000 19.653210 19.314074 13.238839 
465 1 0.160953 1.000000 11.742814 21.795365 12.760141 
466 1 0.349156 1.000000 21.615261 19.755181 7.435814 
467 1 0.355002 1.000000 16.687474 18.887109 11.781566 
468 1 0.271136 1.000000 15.035479 22.722615 10.623694 
469 1 0.144121 1.000000 18.785607 17.293418 12.457228 
470 1 0.237405 1.000000 21.151838 20.941920 8.844096 
471 1 0.299659 1.000000 15.472811 17.546615 14.497070 
472 1 0.104214 1.000000 11.197217 22.419348 8.048914 
473 1 0.437728 1.000000 17.913032 18.812243 4.743828 
474 1 0.430693 1.000000 7.451143 20.275982 10.904417 
475 1 0.281090 1.000000 14.999187 18.407296 10.609189 
476 1 0.136251 1.000000 11.456462 19.541258 8.541225 
477 1 0.250727 1.000000 16.447867 18.270240 10.411006 
478 1 0.121103 1.000000 16.032486 18.320292 5.729855 
479 1 0.157883 1.000000 12.899077 22.074179 11.064703 
480 1 0.052663 1.000000 12.941772 21.612407 10.550937 
481 1 0.138077 1.000000 17.996010 18.323416 7.534757 
482 1 0.213859 1.000000 15.873020 16.699297 10.842042 
483 1 0.363556 1.000000 19.246973 17.790812 13.628707 
484 1 0.152855 1.000000 19.661423 22.948691 8.778706 
485 1 0.177904 1.000000 10.944974 17.616484 12.264035 
486 1 0.305365 1.000000 9.005837 22.021280 11.539298 
487 1 0.230093 1.000000 13.878308 21.809940 5.470228 
488 1 0.139998 1.000000 18.364898 17.631401 9.897674 
489 1 0.230377 1.000000 19.847165 22.654492 8.923625 
490 1 0.111497 1.000000 17.072579 22.042788 12.064369 
491 1 0.183246 1.000000 7.994184 20.933773 10.377078 
492 1 0.660512 1.000000 19.440701 21.426705 10.216060 
493 1 0.229725 1.000000 22.593139 19.730984 8.998201 
494 1 0.216549 1.000000 13.722307 17.372507 9.981759 
495 1 0.398164 1.000000 14.681952 18.898274 15.357251 
496 1 0.319393 1.000000 18.146324 16.774905 8.530674 
497 1 0.159463 1.000000 8.657002 20.909930 11.145524 
498 1 0.175452 1.000000 15.240886 19.634666 6.402464 
499 1 0.489374 1.000000 14.708497 20.424550 11.469122 
500 1 0.415683 1.000000 14.134134 22.851334 7.999808 
501 1 0.254121 1.000000 19.770830 17.909292 8.036104 
502 1 0.345854 1.000000 15.463012 18.892057 8.722322 
503 1 0.240562 1.000000 17.701500 19.605705 11.529717 
504 1 0.223515 1.000000 14.733401 23.114435 9.297559 
505 1 0.092971 1.000000 12.322992 18.247804 6.373436 
506 1 0.160757 1.000000 11.140826 18.560953 7.036364 
507 1 0.279306 1.000000 11.229765 20.579782 5.082700 
508 1 0.355671 1.000000 14.953103 20.546446 8.226151 
509 1 0.107004 1.000000 16.860525 19.761064 10.132536 
510 1 0.105265 1.000000 21.720399 20.384576 11.179097 
511 1 0.327485 1.000000 17.866522 18.921896 9.466359 
512 1 0.233255 1.000000 18.098687 21.436943 13.723606 
513 1 0.468870 1.000000 15.889242 18.901240 7.553244 
514 1 0.472508 1.000000 13.931973 19.844190 15.041968 
515 1 0.192107 1.000000 14.071358 17.343591 13.049456 
516 1 0.429320 1.000000 20.433499 22.228402 8.155112 
517 1 0.488503 1.000000 16.892107 20.171000 6.610328 
518 1 0.293675 1.000000 12.204960 22.299174 8.991567 
519 1 0.211279 1.000000 18.935863 18.828328 11.812910 
520 1 0.266001 1.000000 13.932575 21.338751 12.892465 
521 1 0.230212 1.000000 15.344955 21.229238 7.294450 
522 1 0.309237 1.000000 14.504183 20.855144 7.013661 
523 1 0.196255 1.000000 9.932789 20.347278 10.584952 
524 1 0.310284 1.000000 13.591287 18.328097 8.885394 
525 1 0.163602 1.000000 19.010727 20.881946 7.332271 
526 1 0.146326 1.000000 13.906950 18.804233 10.766019 
527 1 0.144620 1.000000 15.684470 23.507255 11.403469 
528 1 0.127630 1.000000 13.979747 18.813115 6.078656 
529 1 0.145116 1.000000 18.679641 17.757404 11.914152 
530 1 0.279722 1.000000 12.542002 21.241277 7.651288 
531 1 0.149603 1.000000 17.435284 21.442739 11.789329 
532 1 0.313974 1.000000 14.708119 16.553156 9.295478 
533 1 0.235351 1.000000 13.121498 16.869102 10.887160 
534 1 0.189453 1.000000 12.230173 20.031464 8.064801 
535 1 0.247168 1.000000 8.648639 20.833294 7.177885 
536 1 0.447821 1.000000 13.039065 20.978660 11.302856 
537 1 0.310521 1.000000 14.708773 18.309961 8.996427 
538 1 0.439182 1.000000 18.062299 19.478440 7.457014 
539 1 0.200698 1.000000 15.196520 17.690537 8.568474 
540 1 0.415086 1.000000 14.447065 21.268910 11.033972 
541 1 0.341004 1.000000 11.237578 20.319423 8.209415 
542 1 0.250726 1.000000 17.071747 19.929364 7.556527 
543 1 0.258195 1.000000 15.658503 23.054872 11.619493 
544 1 0.350430 1.000000 13.292983 18.571419 5.717151 
545 1 0.152884 1.000000 13.727398 21.190945 13.355365 
546 1 0.182508 1.000000 21.923220 19.025347 7.806188 
547 1 0.267525 1.000000 16.748137 22.470829 6.807653 
548 1 0.158160 1.000000 13.733197 17.638499 8.527745 
549 1 0.226149 1.000000 13.402902 21.451354 4.913900 
550 1 0.228187 1.000000 15.862946 20.963928 13.606795 