LAMMPS simulation for granular ellipsoid
8331 atoms
1 atom types
-1 1 xlo xhi
-1 1 ylo yhi
-1 1 zlo zhi

Atoms

1 1 0.01658 -0.01356 0.02772 0.000000000000013977 0.007319 790.000000
2 1 0.02462 0.01437 0.00809 0.000000000000007067 0.005831 790.000000
3 1 0.00208 -0.01469 0.04308 0.000000000000002137 0.003914 790.000000
4 1 -0.01381 0.01387 0.00693 0.000000000000000265 0.001951 790.000000
5 1 0.01648 -0.02077 0.04748 0.000000000000001265 0.003286 790.000000
6 1 0.03800 -0.01998 -0.03879 0.000000000000000015 0.000752 790.000000
7 1 -0.04969 0.00950 -0.02147 0.000000000000002119 0.003903 790.000000
8 1 0.00835 -0.00756 0.05101 0.000000000000000228 0.001856 790.000000
9 1 -0.05584 0.01811 0.02037 0.000000000000000258 0.001935 790.000000
10 1 0.04570 0.01323 -0.03979 0.000000000000005522 0.005371 790.000000
11 1 0.03000 0.01844 -0.01150 0.000000000000001207 0.003235 790.000000
12 1 0.02228 0.00915 0.00078 0.000000000000000848 0.002876 790.000000
13 1 -0.03273 -0.01276 0.04974 0.000000000000000673 0.002662 790.000000
14 1 -0.07006 0.01561 -0.01571 0.000000000000000337 0.002115 790.000000
15 1 -0.03991 0.02175 0.00358 0.000000000000000108 0.001447 790.000000
16 1 -0.02595 0.00944 0.00433 0.000000000000001310 0.003325 790.000000
17 1 -0.00247 0.01188 0.05269 0.000000000000001065 0.003103 790.000000
18 1 -0.04253 0.00356 -0.02252 0.000000000000000674 0.002665 790.000000
19 1 0.03291 0.00924 -0.02997 0.000000000000003239 0.004496 790.000000
20 1 -0.01597 -0.02426 -0.04274 0.000000000000000667 0.002654 790.000000
21 1 0.03050 -0.00693 0.00522 0.000000000000001376 0.003380 790.000000
22 1 -0.01067 0.02817 -0.00412 0.000000000000000246 0.001904 790.000000
23 1 0.05781 0.00665 -0.01579 0.000000000000000093 0.001377 790.000000
24 1 0.03264 -0.00282 -0.04025 0.000000000000000477 0.002373 790.000000
25 1 -0.02356 -0.03170 -0.00953 0.000000000000000006 0.000544 790.000000
26 1 0.05016 -0.01479 0.00836 0.000000000000001028 0.003067 790.000000
27 1 -0.01076 0.03115 -0.00568 0.000000000000000258 0.001935 790.000000
28 1 -0.01315 -0.02851 -0.04005 0.000000000000000308 0.002052 790.000000
29 1 -0.02798 -0.03170 -0.01672 0.000000000000000918 0.002954 790.000000
30 1 -0.07273 -0.00563 -0.00905 0.000000000000000921 0.002956 790.000000
31 1 0.03732 0.01004 0.02523 0.000000000000001797 0.003694 790.000000
32 1 -0.00418 -0.02161 0.04809 0.000000000000002905 0.004336 790.000000
33 1 0.00513 -0.01819 -0.03338 0.000000000000002370 0.004051 790.000000
34 1 0.02448 0.00546 0.05007 0.000000000000001980 0.003816 790.000000
35 1 -0.03139 0.01828 -0.04679 0.000000000000000975 0.003013 790.000000
36 1 0.01280 0.01133 -0.00934 0.000000000000000103 0.001425 790.000000
37 1 0.00385 -0.00805 -0.01192 0.000000000000000416 0.002267 790.000000
38 1 -0.03472 -0.01049 0.02018 0.000000000000001784 0.003686 790.000000
39 1 0.01819 0.02476 -0.04248 0.000000000000000135 0.001559 790.000000
40 1 -0.01230 -0.03755 0.00943 0.000000000000000304 0.002042 790.000000
41 1 -0.04653 -0.00689 -0.04706 0.000000000000001193 0.003223 790.000000
42 1 0.03415 0.03132 0.02096 0.000000000000004879 0.005154 790.000000
43 1 -0.01574 -0.01149 -0.04046 0.000000000000000067 0.001237 790.000000
44 1 0.00320 -0.02523 0.01574 0.000000000000000788 0.002807 790.000000
45 1 -0.01427 -0.01213 -0.01655 0.000000000000000273 0.001971 790.000000
46 1 -0.02190 0.00180 -0.04369 0.000000000000001987 0.003820 790.000000
47 1 0.00978 -0.02892 0.04010 0.000000000000002609 0.004183 790.000000
48 1 -0.01636 -0.02015 0.01257 0.000000000000001981 0.003816 790.000000
49 1 -0.06809 0.00117 -0.01289 0.000000000000000585 0.002541 790.000000
50 1 0.00832 -0.02103 -0.02192 0.000000000000000009 0.000641 790.000000
51 1 0.01578 0.03129 -0.02691 0.000000000000000375 0.002191 790.000000
52 1 0.05887 -0.01871 0.02089 0.000000000000004544 0.005033 790.000000
53 1 -0.01236 -0.01570 0.02910 0.000000000000000758 0.002771 790.000000
54 1 -0.06243 0.01846 0.02306 0.000000000000001912 0.003771 790.000000
55 1 0.04841 0.01962 0.02826 0.000000000000000530 0.002459 790.000000
56 1 -0.06020 -0.00466 -0.00750 0.000000000000000137 0.001565 790.000000
57 1 -0.01276 -0.01183 0.01146 0.000000000000003978 0.004815 790.000000
58 1 -0.00967 0.02470 0.00549 0.000000000000001071 0.003109 790.000000
59 1 -0.03887 0.03396 -0.00787 0.000000000000002996 0.004380 790.000000
60 1 0.06520 0.00505 0.00520 0.000000000000002112 0.003899 790.000000
61 1 -0.00533 0.00929 -0.00060 0.000000000000000147 0.001603 790.000000
62 1 -0.00798 -0.02217 0.02676 0.000000000000000139 0.001572 790.000000
63 1 0.01864 0.03550 0.02036 0.000000000000000244 0.001900 790.000000
64 1 0.03688 0.00367 0.04346 0.000000000000000601 0.002565 790.000000
65 1 -0.05468 -0.00203 -0.01982 0.000000000000000172 0.001688 790.000000
66 1 -0.01976 0.02130 -0.02745 0.000000000000001785 0.003686 790.000000
67 1 0.00673 0.01936 0.03958 0.000000000000000009 0.000641 790.000000
68 1 0.06726 0.00435 0.02207 0.000000000000001040 0.003079 790.000000
69 1 0.05428 0.00944 0.00917 0.000000000000000247 0.001907 790.000000
70 1 -0.00753 0.02313 0.01018 0.000000000000000236 0.001879 790.000000
71 1 -0.01402 0.03182 0.00681 0.000000000000004154 0.004884 790.000000
72 1 0.03831 -0.01678 0.01706 0.000000000000000212 0.001811 790.000000
73 1 -0.01104 0.01187 -0.01359 0.000000000000000071 0.001258 790.000000
74 1 0.02772 0.02552 0.00183 0.000000000000005170 0.005254 790.000000
75 1 0.07751 0.00414 -0.00170 0.000000000000004261 0.004926 790.000000
76 1 0.05820 -0.02441 -0.01593 0.000000000000006352 0.005627 790.000000
77 1 0.03913 -0.02025 -0.00079 0.000000000000002485 0.004116 790.000000
78 1 0.02290 0.01371 0.02171 0.000000000000003852 0.004763 790.000000
79 1 -0.00325 0.02736 -0.02621 0.000000000000001242 0.003266 790.000000
80 1 -0.04436 0.01140 -0.02776 0.000000000000000049 0.001115 790.000000
81 1 0.02884 -0.02650 -0.00787 0.000000000000000582 0.002537 790.000000
82 1 -0.05467 0.00112 -0.00446 0.000000000000002011 0.003835 790.000000
83 1 -0.03933 0.02540 0.00281 0.000000000000000070 0.001252 790.000000
84 1 0.01597 0.02451 -0.01165 0.000000000000003451 0.004592 790.000000
85 1 -0.05103 0.00180 -0.01821 0.000000000000003427 0.004581 790.000000
86 1 0.00718 -0.03214 -0.00081 0.000000000000000134 0.001554 790.000000
87 1 0.03536 -0.00665 0.04037 0.000000000000003455 0.004594 790.000000
88 1 0.02636 -0.00314 0.00481 0.000000000000000172 0.001690 790.000000
89 1 0.00769 0.00205 0.03406 0.000000000000006611 0.005703 790.000000
90 1 0.03002 -0.00021 -0.01649 0.000000000000000897 0.002931 790.000000
91 1 0.04119 0.02929 -0.01559 0.000000000000000482 0.002383 790.000000
92 1 -0.05039 0.01002 0.02558 0.000000000000000047 0.001096 790.000000
93 1 -0.00270 -0.00486 0.02123 0.000000000000000227 0.001855 790.000000
94 1 0.04452 0.01924 0.03868 0.000000000000000350 0.002142 790.000000
95 1 0.03735 -0.00870 -0.02704 0.000000000000001878 0.003749 790.000000
96 1 -0.03986 0.00973 -0.04123 0.000000000000002396 0.004066 790.000000
97 1 -0.05766 0.01249 0.02498 0.000000000000000025 0.000892 790.000000
98 1 0.02163 -0.00024 -0.02898 0.000000000000000221 0.001837 790.000000
99 1 -0.02042 -0.01891 -0.01328 0.000000000000000080 0.001308 790.000000
100 1 -0.01817 0.00463 -0.03047 0.000000000000000491 0.002397 790.000000
101 1 -0.00402 -0.03031 -0.01292 0.000000000000006710 0.005731 790.000000
102 1 0.01982 0.01178 -0.04572 0.000000000000000660 0.002645 790.000000
103 1 -0.02199 0.02119 -0.04062 0.000000000000000347 0.002136 790.000000
104 1 0.00260 0.00878 -0.02215 0.000000000000003024 0.004394 790.000000
105 1 -0.06228 0.01941 0.01908 0.000000000000000856 0.002885 790.000000
106 1 -0.05723 0.01071 0.03731 0.000000000000002312 0.004018 790.000000
107 1 0.02379 0.01936 -0.04160 0.000000000000000328 0.002095 790.000000
108 1 -0.00422 0.03891 -0.01184 0.000000000000002560 0.004157 790.000000
109 1 -0.00356 0.02326 0.01425 0.000000000000000955 0.002992 790.000000
110 1 -0.04069 -0.00568 -0.04210 0.000000000000000369 0.002179 790.000000
111 1 0.02858 -0.01369 0.01426 0.000000000000000190 0.001747 790.000000
112 1 -0.00939 -0.01243 -0.00288 0.000000000000000525 0.002452 790.000000
113 1 0.01779 -0.00262 0.04160 0.000000000000001307 0.003322 790.000000
114 1 -0.00941 -0.01395 0.02710 0.000000000000000810 0.002832 790.000000
115 1 0.03103 0.02409 0.03088 0.000000000000005878 0.005484 790.000000
116 1 0.00450 0.03175 -0.03357 0.000000000000000515 0.002435 790.000000
117 1 0.02952 0.00682 -0.00529 0.000000000000005997 0.005520 790.000000
118 1 -0.05620 -0.00791 -0.03687 0.000000000000000159 0.001645 790.000000
119 1 -0.03185 0.02164 -0.00556 0.000000000000001251 0.003274 790.000000
120 1 0.00825 -0.03439 0.00602 0.000000000000002211 0.003959 790.000000
121 1 0.05807 -0.01226 0.01720 0.000000000000001237 0.003262 790.000000
122 1 -0.02437 0.01092 0.04045 0.000000000000000351 0.002144 790.000000
123 1 0.05677 -0.00036 -0.00518 0.000000000000005336 0.005310 790.000000
124 1 -0.05953 -0.00137 -0.01342 0.000000000000000001 0.000311 790.000000
125 1 -0.01965 -0.00753 -0.00309 0.000000000000000591 0.002550 790.000000
126 1 0.01781 0.00393 -0.02077 0.000000000000001197 0.003226 790.000000
127 1 0.03998 -0.01036 -0.02496 0.000000000000001878 0.003749 790.000000
128 1 -0.04630 0.01240 -0.02444 0.000000000000001057 0.003095 790.000000
129 1 0.04842 -0.01651 0.03317 0.000000000000012039 0.006964 790.000000
130 1 0.02762 0.00778 -0.00985 0.000000000000000337 0.002115 790.000000
131 1 0.02699 -0.00384 0.01433 0.000000000000000071 0.001258 790.000000
132 1 0.03300 -0.00789 -0.01177 0.000000000000000312 0.002060 790.000000
133 1 0.04811 0.00363 -0.00477 0.000000000000000308 0.002051 790.000000
134 1 -0.03745 -0.01427 -0.00720 0.000000000000000086 0.001342 790.000000
135 1 -0.05225 -0.01623 -0.02063 0.000000000000000052 0.001131 790.000000
136 1 0.03901 0.02109 -0.04084 0.000000000000000151 0.001618 790.000000
137 1 -0.02123 -0.03608 -0.01640 0.000000000000007110 0.005843 790.000000
138 1 0.01966 -0.00773 0.05293 0.000000000000000089 0.001355 790.000000
139 1 0.01031 -0.03309 -0.01934 0.000000000000000874 0.002905 790.000000
140 1 0.01254 0.01935 -0.01480 0.000000000000001055 0.003093 790.000000
141 1 0.05680 0.00403 -0.03247 0.000000000000000765 0.002779 790.000000
142 1 0.00458 0.02345 0.01949 0.000000000000000412 0.002260 790.000000
143 1 0.04694 0.00171 -0.02155 0.000000000000002119 0.003903 790.000000
144 1 -0.04583 0.00750 -0.03972 0.000000000000000715 0.002717 790.000000
145 1 0.02744 0.02413 -0.01577 0.000000000000000656 0.002641 790.000000
146 1 0.00123 -0.03599 0.02436 0.000000000000003457 0.004595 790.000000
147 1 -0.01743 -0.00665 0.04370 0.000000000000000587 0.002544 790.000000
148 1 -0.02898 0.02796 0.01498 0.000000000000004136 0.004877 790.000000
149 1 0.07120 -0.00679 0.01257 0.000000000000000286 0.002001 790.000000
150 1 0.04326 0.00644 0.02129 0.000000000000000029 0.000938 790.000000
151 1 0.00520 -0.00351 -0.00843 0.000000000000000898 0.002932 790.000000
152 1 -0.03137 0.02170 0.03301 0.000000000000000463 0.002351 790.000000
153 1 -0.00351 0.02379 -0.02635 0.000000000000001634 0.003579 790.000000
154 1 -0.04750 0.01239 0.02193 0.000000000000001929 0.003782 790.000000
155 1 0.03757 0.02204 0.00798 0.000000000000000554 0.002496 790.000000
156 1 -0.07010 0.01300 0.01152 0.000000000000007770 0.006018 790.000000
157 1 0.00853 0.00630 0.03275 0.000000000000000892 0.002925 790.000000
158 1 0.00349 -0.00824 0.04113 0.000000000000000967 0.003005 790.000000
159 1 -0.00306 -0.02783 -0.00984 0.000000000000000502 0.002414 790.000000
160 1 0.01743 0.02491 -0.02467 0.000000000000000731 0.002738 790.000000
161 1 -0.02171 0.02991 0.01806 0.000000000000000136 0.001563 790.000000
162 1 0.04612 0.00156 0.03957 0.000000000000000323 0.002086 790.000000
163 1 -0.04080 -0.02408 0.02587 0.000000000000000228 0.001857 790.000000
164 1 0.01780 0.00196 0.03328 0.000000000000001663 0.003600 790.000000
165 1 -0.05089 -0.00358 0.01245 0.000000000000000701 0.002699 790.000000
166 1 -0.00607 -0.02832 0.04160 0.000000000000000326 0.002091 790.000000
167 1 -0.01863 -0.02542 0.00932 0.000000000000000211 0.001809 790.000000
168 1 0.01297 -0.02295 -0.03804 0.000000000000000830 0.002856 790.000000
169 1 0.03997 0.02474 0.03263 0.000000000000000565 0.002512 790.000000
170 1 0.03001 0.00613 0.03728 0.000000000000001269 0.003290 790.000000
171 1 0.03089 -0.01438 0.00807 0.000000000000001504 0.003482 790.000000
172 1 0.03246 0.01529 0.04927 0.000000000000002121 0.003904 790.000000
173 1 0.01085 0.00906 0.00900 0.000000000000002799 0.004282 790.000000
174 1 -0.00997 -0.00135 0.00649 0.000000000000000477 0.002374 790.000000
175 1 0.02034 -0.02728 0.04006 0.000000000000000805 0.002827 790.000000
176 1 0.01970 0.00911 0.04833 0.000000000000000128 0.001533 790.000000
177 1 0.01629 0.01100 0.03418 0.000000000000001253 0.003276 790.000000
178 1 -0.05345 0.02206 -0.01615 0.000000000000000086 0.001339 790.000000
179 1 -0.05691 0.01952 -0.02268 0.000000000000002367 0.004050 790.000000
180 1 0.03871 -0.00638 0.03306 0.000000000000001168 0.003200 790.000000
181 1 0.06605 -0.00385 0.01648 0.000000000000003586 0.004651 790.000000
182 1 -0.02343 -0.00020 -0.02918 0.000000000000000027 0.000915 790.000000
183 1 0.02858 -0.00920 0.02463 0.000000000000000369 0.002179 790.000000
184 1 -0.03806 -0.02985 0.00448 0.000000000000000162 0.001655 790.000000
185 1 -0.06280 0.00776 -0.00111 0.000000000000001521 0.003494 790.000000
186 1 -0.00464 0.01171 -0.03181 0.000000000000000139 0.001573 790.000000
187 1 -0.02674 -0.00163 -0.00874 0.000000000000001144 0.003178 790.000000
188 1 0.06378 0.01281 0.02489 0.000000000000001466 0.003452 790.000000
189 1 0.06116 0.00012 -0.03027 0.000000000000004764 0.005113 790.000000
190 1 -0.03564 -0.00457 -0.02868 0.000000000000002325 0.004025 790.000000
191 1 0.05062 -0.00102 0.02657 0.000000000000004436 0.004992 790.000000
192 1 0.02193 0.01007 0.05312 0.000000000000002393 0.004064 790.000000
193 1 -0.03731 -0.01914 0.02605 0.000000000000001022 0.003060 790.000000
194 1 -0.00455 0.01041 -0.00144 0.000000000000000147 0.001603 790.000000
195 1 0.04451 0.00243 0.01850 0.000000000000001504 0.003481 790.000000
196 1 -0.05511 0.00766 0.02541 0.000000000000000277 0.001980 790.000000
197 1 0.04367 0.00449 -0.03919 0.000000000000004030 0.004835 790.000000
198 1 -0.02466 0.03721 -0.00660 0.000000000000000117 0.001486 790.000000
199 1 0.03261 0.03628 -0.00614 0.000000000000001558 0.003523 790.000000
200 1 -0.04512 -0.00559 -0.00049 0.000000000000000222 0.001839 790.000000
201 1 0.02319 0.00956 0.01667 0.000000000000000134 0.001553 790.000000
202 1 0.03512 -0.00338 -0.01024 0.000000000000001423 0.003418 790.000000
203 1 -0.00248 0.00142 0.05151 0.000000000000000123 0.001511 790.000000
204 1 0.00497 0.00716 0.02562 0.000000000000001140 0.003174 790.000000
205 1 0.01948 0.00760 0.04844 0.000000000000000128 0.001533 790.000000
206 1 -0.04915 0.02451 -0.01390 0.000000000000000643 0.002623 790.000000
207 1 0.02939 0.02110 -0.00984 0.000000000000000787 0.002806 790.000000
208 1 -0.02108 -0.01496 -0.02022 0.000000000000000422 0.002279 790.000000
209 1 -0.05295 0.02475 -0.02159 0.000000000000000042 0.001052 790.000000
210 1 -0.04405 0.00581 -0.04918 0.000000000000000325 0.002090 790.000000
211 1 -0.00983 -0.02276 -0.02983 0.000000000000000516 0.002438 790.000000
212 1 -0.01728 -0.02408 -0.03779 0.000000000000001287 0.003305 790.000000
213 1 0.02303 0.00251 -0.04353 0.000000000000001203 0.003231 790.000000
214 1 -0.00596 0.00619 0.02593 0.000000000000000447 0.002324 790.000000
215 1 -0.04031 -0.00307 -0.04709 0.000000000000000079 0.001306 790.000000
216 1 0.03462 0.01183 -0.02573 0.000000000000001052 0.003091 790.000000
217 1 -0.05843 -0.01008 -0.00725 0.000000000000000645 0.002626 790.000000
218 1 0.06782 0.00176 0.01965 0.000000000000002414 0.004076 790.000000
219 1 -0.03719 -0.01857 0.01501 0.000000000000002151 0.003922 790.000000
220 1 0.01240 0.03721 -0.00407 0.000000000000000100 0.001409 790.000000
221 1 -0.03735 0.01553 -0.01855 0.000000000000000328 0.002095 790.000000
222 1 -0.00766 0.01519 0.05279 0.000000000000000339 0.002119 790.000000
223 1 -0.02523 -0.03396 0.00352 0.000000000000000137 0.001567 790.000000
224 1 0.01032 0.02652 -0.00683 0.000000000000000369 0.002179 790.000000
225 1 0.06739 -0.00697 0.02806 0.000000000000001307 0.003322 790.000000
226 1 0.05880 -0.01083 -0.00909 0.000000000000000144 0.001592 790.000000
227 1 0.05070 -0.02658 0.00263 0.000000000000000476 0.002373 790.000000
228 1 0.02680 0.00470 -0.05002 0.000000000000000903 0.002937 790.000000
229 1 0.02609 -0.02083 0.04325 0.000000000000000001 0.000322 790.000000
230 1 0.03237 -0.00316 -0.04561 0.000000000000007008 0.005815 790.000000
231 1 0.02935 -0.02461 -0.00618 0.000000000000000161 0.001653 790.000000
232 1 0.05218 0.02172 0.03059 0.000000000000000827 0.002852 790.000000
233 1 0.01616 -0.02722 0.02943 0.000000000000000973 0.003011 790.000000
234 1 -0.07517 0.00182 -0.01672 0.000000000000001982 0.003817 790.000000
235 1 0.00542 0.01662 -0.05024 0.000000000000000511 0.002429 790.000000
236 1 0.02922 -0.01665 0.04559 0.000000000000000166 0.001671 790.000000
237 1 -0.04112 0.01694 0.00480 0.000000000000002470 0.004108 790.000000
238 1 -0.00468 0.00536 0.00855 0.000000000000002000 0.003828 790.000000
239 1 0.00780 -0.02061 -0.00394 0.000000000000000564 0.002511 790.000000
240 1 0.04633 0.01638 -0.00267 0.000000000000000061 0.001198 790.000000
241 1 -0.00121 -0.00194 -0.02375 0.000000000000002191 0.003946 790.000000
242 1 -0.01446 0.00019 0.04680 0.000000000000004983 0.005190 790.000000
243 1 -0.01829 0.00869 0.03996 0.000000000000002251 0.003982 790.000000
244 1 -0.02548 -0.02251 -0.03343 0.000000000000001967 0.003807 790.000000
245 1 0.00512 -0.01397 0.01947 0.000000000000000467 0.002357 790.000000
246 1 -0.00505 -0.00682 0.00041 0.000000000000001133 0.003168 790.000000
247 1 -0.01999 -0.02819 -0.02148 0.000000000000000063 0.001206 790.000000
248 1 0.05295 0.00682 -0.02957 0.000000000000000549 0.002489 790.000000
249 1 0.01190 0.01563 0.04180 0.000000000000001876 0.003748 790.000000
250 1 0.04915 -0.00349 -0.01283 0.000000000000003937 0.004798 790.000000
251 1 -0.03112 0.00596 0.04317 0.000000000000000691 0.002687 790.000000
252 1 0.02778 0.03084 0.01105 0.000000000000001687 0.003617 790.000000
253 1 -0.01689 0.01505 0.02436 0.000000000000000281 0.001991 790.000000
254 1 -0.01219 0.00998 -0.02880 0.000000000000000614 0.002583 790.000000
255 1 0.05408 -0.00930 0.00321 0.000000000000000392 0.002223 790.000000
256 1 0.00521 0.00380 -0.03433 0.000000000000000543 0.002478 790.000000
257 1 0.03301 0.00293 -0.00696 0.000000000000000069 0.001245 790.000000
258 1 0.02491 0.00812 -0.05299 0.000000000000004019 0.004831 790.000000
259 1 0.02686 -0.01019 -0.02433 0.000000000000000155 0.001630 790.000000
260 1 -0.00219 -0.01332 -0.05270 0.000000000000000150 0.001614 790.000000
261 1 -0.03582 0.02096 0.00884 0.000000000000001331 0.003342 790.000000
262 1 -0.05655 -0.01765 0.00290 0.000000000000000705 0.002705 790.000000
263 1 -0.01933 0.02742 -0.03722 0.000000000000002765 0.004265 790.000000
264 1 0.02394 -0.00173 -0.04800 0.000000000000000615 0.002583 790.000000
265 1 -0.04479 -0.00999 -0.03139 0.000000000000001631 0.003577 790.000000
266 1 -0.01007 -0.00276 -0.02396 0.000000000000000571 0.002520 790.000000
267 1 -0.04749 -0.01428 -0.00459 0.000000000000000788 0.002807 790.000000
268 1 0.07089 0.00191 -0.02761 0.000000000000000470 0.002362 790.000000
269 1 -0.03007 0.02178 0.01447 0.000000000000006486 0.005667 790.000000
270 1 0.01454 -0.00930 -0.02859 0.000000000000000193 0.001757 790.000000
271 1 -0.05822 -0.00375 -0.03432 0.000000000000002763 0.004264 790.000000
272 1 0.01080 -0.02996 -0.03836 0.000000000000002043 0.003856 790.000000
273 1 0.04998 -0.00555 0.02230 0.000000000000004697 0.005089 790.000000
274 1 0.02232 0.03139 -0.01298 0.000000000000000405 0.002248 790.000000
275 1 -0.00153 0.03826 0.01017 0.000000000000000499 0.002410 790.000000
276 1 0.03901 0.02213 -0.00379 0.000000000000005751 0.005444 790.000000
277 1 -0.01498 0.01523 0.00508 0.000000000000000055 0.001154 790.000000
278 1 0.00049 0.01059 -0.00801 0.000000000000000535 0.002467 790.000000
279 1 0.01494 0.02598 -0.02213 0.000000000000003655 0.004680 790.000000
280 1 0.01124 0.02072 -0.00792 0.000000000000007878 0.006046 790.000000
281 1 -0.01375 -0.03795 -0.00689 0.000000000000000150 0.001615 790.000000
282 1 -0.00697 0.01047 -0.00418 0.000000000000000570 0.002520 790.000000
283 1 -0.05102 -0.00113 -0.04080 0.000000000000000150 0.001614 790.000000
284 1 0.02325 0.02744 -0.01573 0.000000000000000149 0.001610 790.000000
285 1 -0.05659 -0.00515 0.01293 0.000000000000000307 0.002049 790.000000
286 1 0.05721 -0.01157 0.02799 0.000000000000001680 0.003612 790.000000
287 1 0.03902 -0.01369 0.04807 0.000000000000000725 0.002729 790.000000
288 1 0.05849 0.00908 0.01348 0.000000000000000585 0.002541 790.000000
289 1 -0.01945 -0.01954 0.01185 0.000000000000000027 0.000913 790.000000
290 1 0.00485 0.01045 0.04369 0.000000000000002002 0.003830 790.000000
291 1 -0.03792 -0.01536 0.00415 0.000000000000001121 0.003156 790.000000
292 1 0.02029 -0.02381 0.02296 0.000000000000000863 0.002893 790.000000
293 1 -0.00745 -0.01128 0.02178 0.000000000000000528 0.002456 790.000000
294 1 -0.05408 0.00105 -0.03870 0.000000000000000564 0.002511 790.000000
295 1 -0.00975 0.02250 -0.03191 0.000000000000002959 0.004362 790.000000
296 1 0.01561 0.01606 0.02126 0.000000000000001499 0.003478 790.000000
297 1 -0.00522 -0.03549 -0.01263 0.000000000000000235 0.001875 790.000000
298 1 -0.03552 0.02833 -0.03197 0.000000000000000067 0.001236 790.000000
299 1 0.00758 0.00942 0.00305 0.000000000000000140 0.001578 790.000000
300 1 0.01787 0.00506 0.00214 0.000000000000000301 0.002037 790.000000
301 1 -0.04000 0.02246 0.00232 0.000000000000000108 0.001447 790.000000
302 1 0.05852 0.00775 0.00647 0.000000000000000738 0.002746 790.000000
303 1 -0.04220 0.00092 0.03800 0.000000000000000847 0.002875 790.000000
304 1 0.03403 -0.02463 0.03124 0.000000000000000404 0.002245 790.000000
305 1 -0.01483 0.00084 0.03388 0.000000000000004706 0.005092 790.000000
306 1 0.06790 -0.00960 -0.01699 0.000000000000000245 0.001900 790.000000
307 1 -0.01194 -0.03091 -0.02968 0.000000000000000827 0.002852 790.000000
308 1 -0.02368 -0.01733 -0.02961 0.000000000000000536 0.002469 790.000000
309 1 -0.00872 -0.01185 -0.04144 0.000000000000001557 0.003522 790.000000
310 1 -0.06619 -0.01086 -0.00096 0.000000000000003597 0.004656 790.000000
311 1 0.04245 -0.01530 -0.01240 0.000000000000006660 0.005717 790.000000
312 1 -0.01069 -0.00564 0.03090 0.000000000000001559 0.003523 790.000000
313 1 0.01784 -0.01364 0.01769 0.000000000000000927 0.002963 790.000000
314 1 -0.03807 -0.02111 -0.00325 0.000000000000000221 0.001836 790.000000
315 1 0.02959 0.01061 -0.00803 0.000000000000000225 0.001848 790.000000
316 1 -0.04976 -0.02280 0.00424 0.000000000000001186 0.003216 790.000000
317 1 0.00247 -0.02579 -0.04193 0.000000000000000854 0.002883 790.000000
318 1 0.07195 0.00656 -0.02338 0.000000000000000449 0.002327 790.000000
319 1 -0.00233 0.01034 0.03693 0.000000000000003480 0.004605 790.000000
320 1 0.00978 0.02224 0.02188 0.000000000000001110 0.003146 790.000000
321 1 -0.05584 0.02670 0.00190 0.000000000000001624 0.003572 790.000000
322 1 0.01146 -0.02722 0.03270 0.000000000000000912 0.002947 790.000000
323 1 0.03223 -0.02177 -0.02686 0.000000000000000562 0.002507 790.000000
324 1 -0.01698 0.01959 -0.01924 0.000000000000000322 0.002083 790.000000
325 1 -0.03734 -0.02886 0.00559 0.000000000000000162 0.001655 790.000000
326 1 -0.00998 -0.00299 -0.04729 0.000000000000000680 0.002673 790.000000
327 1 0.02661 -0.01188 0.03678 0.000000000000000362 0.002166 790.000000
328 1 0.01934 0.00867 0.03565 0.000000000000002017 0.003839 790.000000
329 1 0.01358 -0.01596 -0.01536 0.000000000000000485 0.002387 790.000000
330 1 -0.02327 0.01884 -0.03350 0.000000000000000360 0.002162 790.000000
331 1 -0.04609 0.02204 0.03052 0.000000000000000422 0.002280 790.000000
332 1 0.04096 0.02089 -0.00748 0.000000000000000508 0.002425 790.000000
333 1 0.04563 0.02897 -0.01945 0.000000000000000430 0.002293 790.000000
334 1 0.00179 -0.02989 0.00720 0.000000000000003235 0.004494 790.000000
335 1 -0.01822 0.01608 -0.04751 0.000000000000000623 0.002595 790.000000
336 1 0.02768 -0.03394 0.02393 0.000000000000000275 0.001976 790.000000
337 1 0.02567 -0.00682 0.05463 0.000000000000000540 0.002474 790.000000
338 1 -0.01511 0.00503 0.02134 0.000000000000000756 0.002768 790.000000
339 1 0.02385 0.02391 0.02097 0.000000000000001954 0.003799 790.000000
340 1 -0.04573 -0.02660 0.02507 0.000000000000000772 0.002787 790.000000
341 1 0.00571 -0.01055 0.04976 0.000000000000000187 0.001738 790.000000
342 1 -0.02463 0.00823 -0.02594 0.000000000000001237 0.003262 790.000000
343 1 0.00982 0.01060 -0.04275 0.000000000000006067 0.005542 790.000000
344 1 -0.01643 -0.00914 -0.03821 0.000000000000002067 0.003871 790.000000
345 1 -0.03755 0.03223 -0.01107 0.000000000000001343 0.003353 790.000000
346 1 -0.00016 0.00796 0.04578 0.000000000000000058 0.001175 790.000000
347 1 -0.03043 0.01688 -0.02317 0.000000000000002081 0.003879 790.000000
348 1 0.05090 0.00306 -0.04498 0.000000000000019862 0.008229 790.000000
349 1 0.02148 0.01391 0.03224 0.000000000000001255 0.003277 790.000000
350 1 -0.03447 0.00526 0.03828 0.000000000000000203 0.001787 790.000000
351 1 0.00063 -0.02394 0.04454 0.000000000000000560 0.002504 790.000000
352 1 0.04127 0.02675 0.03110 0.000000000000001154 0.003187 790.000000
353 1 -0.01110 -0.03315 0.01912 0.000000000000000226 0.001851 790.000000
354 1 0.05871 0.00339 -0.00621 0.000000000000001383 0.003385 790.000000
355 1 0.05456 0.00841 0.00759 0.000000000000000247 0.001907 790.000000
356 1 -0.01146 0.01518 -0.02616 0.000000000000000292 0.002016 790.000000
357 1 -0.01023 -0.01147 -0.01181 0.000000000000000027 0.000906 790.000000
358 1 -0.02377 -0.00641 0.04696 0.000000000000000411 0.002259 790.000000
359 1 0.00286 0.01616 -0.02571 0.000000000000006190 0.005579 790.000000
360 1 0.03032 0.00621 0.03177 0.000000000000000397 0.002233 790.000000
361 1 -0.00017 -0.01196 0.02588 0.000000000000000502 0.002415 790.000000
362 1 -0.02406 0.02634 -0.02410 0.000000000000000194 0.001759 790.000000
363 1 0.02830 0.01404 0.02981 0.000000000000000151 0.001616 790.000000
364 1 0.01425 -0.00653 -0.00708 0.000000000000000677 0.002668 790.000000
365 1 -0.03452 0.02744 0.02268 0.000000000000000395 0.002230 790.000000
366 1 -0.01339 0.00499 -0.01846 0.000000000000003206 0.004480 790.000000
367 1 -0.01513 -0.00916 0.05573 0.000000000000000008 0.000605 790.000000
368 1 0.04390 -0.00140 -0.02432 0.000000000000002741 0.004253 790.000000
369 1 0.02081 0.01237 0.00058 0.000000000000002157 0.003926 790.000000
370 1 -0.01436 -0.00014 -0.01886 0.000000000000000978 0.003016 790.000000
371 1 0.06908 -0.00513 -0.00456 0.000000000000000557 0.002501 790.000000
372 1 0.02586 -0.00935 -0.02262 0.000000000000000686 0.002680 790.000000
373 1 -0.04728 -0.01815 0.00849 0.000000000000000869 0.002900 790.000000
374 1 -0.06128 0.00084 0.02866 0.000000000000001378 0.003381 790.000000
375 1 0.00713 -0.00386 0.04949 0.000000000000000344 0.002129 790.000000
376 1 0.02057 0.02246 -0.04255 0.000000000000001094 0.003131 790.000000
377 1 0.00672 0.01531 -0.05181 0.000000000000000511 0.002429 790.000000
378 1 0.01615 -0.02242 -0.03050 0.000000000000001575 0.003536 790.000000
379 1 0.03375 -0.01123 0.02707 0.000000000000000014 0.000736 790.000000
380 1 0.02689 0.00398 0.00062 0.000000000000005819 0.005465 790.000000
381 1 -0.06270 -0.01763 -0.00268 0.000000000000003124 0.004442 790.000000
382 1 -0.04976 -0.02650 -0.02389 0.000000000000000639 0.002617 790.000000
383 1 0.07821 -0.00554 -0.00422 0.000000000000000970 0.003008 790.000000
384 1 0.01431 0.01122 -0.03576 0.000000000000000381 0.002203 790.000000
385 1 -0.00803 -0.00906 -0.05195 0.000000000000000167 0.001675 790.000000
386 1 0.01996 -0.03398 0.01699 0.000000000000003133 0.004446 790.000000
387 1 -0.04563 -0.00563 0.03677 0.000000000000003811 0.004746 790.000000
388 1 0.00442 0.00497 -0.00603 0.000000000000000472 0.002366 790.000000
389 1 -0.02280 -0.01992 0.00613 0.000000000000000093 0.001378 790.000000
390 1 0.00351 0.02213 -0.01604 0.000000000000000210 0.001807 790.000000
391 1 0.02160 0.01934 0.04794 0.000000000000000077 0.001291 790.000000
392 1 -0.03860 -0.00318 -0.00345 0.000000000000003221 0.004488 790.000000
393 1 -0.02538 0.00749 -0.00642 0.000000000000000689 0.002683 790.000000
394 1 0.00248 -0.02237 -0.04078 0.000000000000000168 0.001678 790.000000
395 1 0.07618 -0.00165 -0.00694 0.000000000000004944 0.005176 790.000000
396 1 -0.07531 -0.01110 0.00143 0.000000000000000110 0.001454 790.000000
397 1 0.05501 -0.02414 0.01120 0.000000000000002128 0.003908 790.000000
398 1 0.03098 0.02003 0.04640 0.000000000000000762 0.002775 790.000000
399 1 0.02575 -0.00928 -0.03604 0.000000000000001494 0.003473 790.000000
400 1 -0.00308 -0.02198 -0.00384 0.000000000000002765 0.004265 790.000000
401 1 -0.02279 0.01846 0.02030 0.000000000000000423 0.002281 790.000000
402 1 0.04941 0.00192 -0.00621 0.000000000000000726 0.002731 790.000000
403 1 -0.04284 -0.01662 0.04276 0.000000000000000322 0.002083 790.000000
404 1 -0.00474 0.03014 0.01676 0.000000000000001800 0.003696 790.000000
405 1 0.01893 -0.00195 -0.04647 0.000000000000001706 0.003631 790.000000
406 1 -0.04411 0.01006 0.03551 0.000000000000000488 0.002392 790.000000
407 1 -0.04023 0.01579 0.02956 0.000000000000005094 0.005228 790.000000
408 1 -0.03287 -0.00243 -0.04853 0.000000000000001094 0.003131 790.000000
409 1 0.06218 0.01558 0.00474 0.000000000000000428 0.002289 790.000000
410 1 0.04893 0.00460 -0.03405 0.000000000000001475 0.003458 790.000000
411 1 -0.03243 -0.03174 0.01802 0.000000000000011067 0.006771 790.000000
412 1 -0.02894 0.03411 -0.00976 0.000000000000003348 0.004546 790.000000
413 1 -0.03889 -0.00459 0.02815 0.000000000000000608 0.002574 790.000000