LAMMPS simulation for granular ellipsoid
10448 atoms
1 atom types
5 25 xlo xhi
15 32.532224567 ylo yhi
0 20 zlo zhi

Atoms

1 1 9.461026 22.601613 11.504273 0.000000005158426807 0.466663 1500.000000
2 1 21.020075 17.651027 9.699848 0.000000000435817773 0.204770 1500.000000
3 1 14.818068 22.345920 9.944135 0.000000002358862804 0.359527 1500.000000
4 1 13.513225 21.453852 7.917784 0.000000000179877007 0.152460 1500.000000
5 1 9.025221 19.759925 9.009827 0.000000003990520530 0.428391 1500.000000
6 1 9.982214 21.268387 12.593806 0.000000000923898009 0.263050 1500.000000
7 1 12.184976 23.667355 10.230188 0.000000000210366096 0.160629 1500.000000
8 1 9.312590 21.798846 8.966438 0.000000001310355675 0.295547 1500.000000
9 1 18.669911 22.015218 6.013934 0.000000000389135874 0.197181 1500.000000
10 1 14.716474 17.485046 6.937694 0.000000002249760745 0.353897 1500.000000
11 1 12.409036 20.547039 13.099262 0.000000000279523414 0.176592 1500.000000
12 1 14.213811 21.466253 9.730556 0.000000001316837908 0.296034 1500.000000
13 1 9.967216 21.349807 7.456593 0.000000000026248786 0.080266 1500.000000
14 1 12.188077 17.073598 13.094497 0.000000002414174704 0.362316 1500.000000
15 1 16.283720 22.516513 13.334950 0.000000000281341225 0.176974 1500.000000
16 1 11.223531 19.246403 8.981532 0.000000001399489456 0.302102 1500.000000
17 1 11.158420 21.152282 7.729322 0.000000000416081159 0.201631 1500.000000
18 1 17.833281 18.930745 11.248060 0.000000001290604070 0.294055 1500.000000
19 1 11.139653 22.636585 7.900247 0.000000000356666740 0.191537 1500.000000
20 1 14.038839 18.419908 9.721778 0.000000001454299727 0.305996 1500.000000
21 1 19.383281 22.202964 12.831195 0.000000003343137483 0.403846 1500.000000
22 1 17.178224 17.699166 13.635563 0.000000000446802976 0.206476 1500.000000
23 1 19.057304 17.631828 6.389216 0.000000000136788080 0.139160 1500.000000
24 1 16.376498 18.159203 14.771271 0.000000002277409875 0.355340 1500.000000
25 1 19.368901 22.646330 11.004086 0.000000002865402153 0.383612 1500.000000
26 1 16.684642 19.163009 14.017626 0.000000000302465082 0.181296 1500.000000
27 1 11.643235 20.246747 10.938209 0.000000002227402591 0.352720 1500.000000
28 1 12.556955 19.348395 4.511466 0.000000000422867168 0.202721 1500.000000
29 1 13.584555 23.212170 7.639640 0.000000000721824790 0.242275 1500.000000
30 1 9.449094 18.999671 12.824988 0.000000001688453192 0.321608 1500.000000
31 1 18.827192 20.009200 8.247042 0.000000002971658941 0.388297 1500.000000
32 1 8.581925 19.547070 10.695389 0.000000000165072142 0.148157 1500.000000
33 1 10.633786 20.006903 11.060144 0.000000006795170714 0.511561 1500.000000
34 1 17.604415 22.331211 13.609091 0.000000000256841818 0.171680 1500.000000
35 1 16.972045 17.240053 10.725476 0.000000000159123449 0.146355 1500.000000
36 1 12.252300 16.650405 11.490977 0.000000000561758590 0.222851 1500.000000
37 1 11.437888 21.026098 7.628511 0.000000002678352045 0.375077 1500.000000
38 1 13.950030 16.775654 9.670813 0.000000000295473805 0.179889 1500.000000
39 1 12.604729 16.267462 11.054725 0.000000016752008792 0.691066 1500.000000
40 1 18.143188 20.674209 9.808870 0.000000000809948249 0.251758 1500.000000
41 1 12.409010 21.377416 10.368557 0.000000000814815085 0.252261 1500.000000
42 1 11.879739 22.341511 14.024402 0.000000000430384786 0.203915 1500.000000
43 1 17.369611 19.041554 14.914773 0.000000000085142696 0.118817 1500.000000
44 1 21.289180 19.473535 6.571717 0.000000004423448024 0.443355 1500.000000
45 1 8.166142 18.439054 11.745499 0.000000003621803649 0.414769 1500.000000
46 1 17.978539 23.400924 7.972397 0.000000002084466783 0.345008 1500.000000
47 1 9.269062 22.230610 11.019861 0.000000000547560581 0.220957 1500.000000
48 1 10.812897 19.232046 12.103559 0.000000000445360549 0.206254 1500.000000
49 1 19.481675 18.969044 12.417243 0.000000000545486684 0.220678 1500.000000
50 1 12.137492 19.788314 4.557829 0.000000002301570684 0.356593 1500.000000
51 1 12.397956 18.460248 5.516153 0.000000002118379480 0.346869 1500.000000
52 1 18.141724 18.593692 8.401309 0.000000003056273458 0.391948 1500.000000
53 1 10.340317 20.451255 10.107697 0.000000000157083767 0.145727 1500.000000
54 1 20.186390 17.475521 7.785319 0.000000000014988067 0.066591 1500.000000
55 1 16.912093 23.269175 12.946377 0.000000006365109957 0.500533 1500.000000
56 1 8.661037 21.599198 11.157341 0.000000018745510356 0.717458 1500.000000
57 1 19.784989 23.083698 10.906752 0.000000001049575008 0.274474 1500.000000
58 1 12.000206 19.557452 4.772857 0.000000001849771060 0.331541 1500.000000
59 1 11.505427 16.948826 9.242092 0.000000000367670357 0.193486 1500.000000
60 1 14.933947 20.771616 11.786305 0.000000008606304555 0.553481 1500.000000
61 1 18.807052 18.344011 9.001430 0.000000001771159231 0.326776 1500.000000
62 1 11.971517 20.032653 4.620839 0.000000000769163089 0.247459 1500.000000
63 1 16.606520 22.758249 5.917741 0.000000000717898439 0.241835 1500.000000
64 1 16.269269 20.352146 14.909807 0.000000000093960991 0.122785 1500.000000
65 1 20.925940 20.166717 11.097211 0.000000000036156038 0.089308 1500.000000
66 1 18.036420 20.209741 14.638530 0.000000003658376792 0.416160 1500.000000
67 1 12.483556 18.230470 9.595610 0.000000000123885342 0.134639 1500.000000
68 1 15.727037 20.175094 5.345043 0.000000001800835867 0.328591 1500.000000
69 1 10.800182 18.983291 13.752455 0.000000001210558575 0.287845 1500.000000
70 1 19.897065 22.026828 7.254793 0.000000000900147367 0.260777 1500.000000
71 1 13.045567 19.567920 4.614862 0.000000000052135485 0.100896 1500.000000
72 1 21.545523 20.414973 8.372320 0.000000001589213570 0.315180 1500.000000
73 1 10.322090 21.942071 11.755969 0.000000000252008792 0.170596 1500.000000
74 1 17.564484 19.090795 6.763873 0.000000000325639947 0.185813 1500.000000
75 1 19.133973 22.028883 12.648596 0.000000001447589180 0.305524 1500.000000
76 1 15.278076 21.321435 10.809737 0.000000001845097052 0.331261 1500.000000
77 1 14.858489 17.459834 12.665122 0.000000001334884141 0.297380 1500.000000
78 1 14.788777 22.450821 10.652011 0.000000000857438912 0.256585 1500.000000
79 1 12.770504 21.418497 14.785077 0.000000000881926871 0.259005 1500.000000
80 1 21.091551 17.559077 10.276288 0.000000000599008262 0.227671 1500.000000
81 1 18.909635 18.974317 12.675949 0.000000002278352449 0.355389 1500.000000
82 1 13.668337 20.317742 5.669859 0.000000000502020648 0.214654 1500.000000
83 1 9.901220 18.569314 13.503808 0.000000001144584216 0.282518 1500.000000
84 1 13.208609 16.362484 11.190544 0.000000000018157061 0.070987 1500.000000
85 1 11.627598 18.380196 9.228776 0.000000000067275363 0.109846 1500.000000
86 1 8.169390 18.431340 9.701699 0.000000000616254751 0.229836 1500.000000
87 1 10.113728 20.291081 5.898928 0.000000000218534338 0.162681 1500.000000
88 1 13.679764 16.961593 7.534322 0.000000000010364332 0.058886 1500.000000
89 1 11.686825 22.362135 11.139975 0.000000000325815613 0.185847 1500.000000
90 1 18.234216 20.020406 13.704873 0.000000000050457004 0.099802 1500.000000
91 1 15.888135 22.066419 9.208357 0.000000001278070764 0.293100 1500.000000
92 1 19.648699 20.147679 9.721088 0.000000001687868014 0.321571 1500.000000
93 1 14.101957 19.812998 10.090319 0.000000000216229274 0.162107 1500.000000
94 1 11.871059 18.555575 14.441327 0.000000000195680355 0.156800 1500.000000
95 1 10.944165 19.623618 5.559830 0.000000000743951693 0.244725 1500.000000
96 1 10.566095 22.267040 9.672692 0.000000004951679693 0.460343 1500.000000
97 1 13.329747 19.298682 5.469305 0.000000000734403879 0.243674 1500.000000
98 1 11.320395 16.965208 9.671957 0.000000000401212878 0.199200 1500.000000
99 1 13.695064 22.979732 13.021196 0.000000000610315966 0.229095 1500.000000
100 1 15.806830 17.097305 8.577928 0.000000002201560280 0.351351 1500.000000
101 1 16.541373 16.147340 9.232278 0.000000000868476517 0.257682 1500.000000
102 1 16.226177 16.138471 11.242350 0.000000001158139983 0.283629 1500.000000
103 1 14.412969 17.053274 10.283392 0.000000001191164884 0.286300 1500.000000
104 1 17.435782 17.569043 7.126542 0.000000000405179275 0.199854 1500.000000
105 1 13.855641 20.115950 10.322133 0.000000002524419374 0.367749 1500.000000
106 1 16.419928 21.141214 6.762972 0.000000001747076379 0.325288 1500.000000
107 1 18.920879 17.301273 9.574197 0.000000002326798146 0.357891 1500.000000
108 1 15.058819 20.468028 15.639150 0.000000001974834884 0.338850 1500.000000
109 1 16.685497 18.946254 14.817224 0.000000000515512765 0.216560 1500.000000
110 1 18.393966 19.525227 11.011120 0.000000001073719394 0.276563 1500.000000
111 1 15.376327 18.926675 6.862970 0.000000002262249043 0.354550 1500.000000
112 1 12.815831 18.918440 10.736922 0.000000000447384395 0.206565 1500.000000
113 1 18.001562 22.680750 11.156751 0.000000000701476087 0.239976 1500.000000
114 1 11.632221 19.525991 12.099672 0.000000002961160249 0.387839 1500.000000
115 1 12.414933 19.302302 9.740148 0.000000011371163339 0.607341 1500.000000
116 1 19.718745 17.832144 13.462248 0.000000000277853160 0.176239 1500.000000
117 1 17.117902 21.696342 10.509424 0.000000001826877331 0.330167 1500.000000
118 1 19.983213 19.457458 12.926322 0.000000001591249480 0.315314 1500.000000
119 1 14.169492 19.327568 15.060579 0.000000000050676848 0.099946 1500.000000
120 1 18.454900 19.392140 6.880455 0.000000000183625937 0.153512 1500.000000
121 1 15.510405 21.846163 14.840296 0.000000000240460131 0.167949 1500.000000
122 1 13.115355 18.495269 12.586045 0.000000001021352585 0.271992 1500.000000
123 1 21.989141 21.388780 11.971452 0.000000000951012083 0.265599 1500.000000
124 1 16.220358 18.156171 11.939007 0.000000000289626978 0.178694 1500.000000
125 1 13.621197 18.125647 13.347975 0.000000000460632801 0.208585 1500.000000
126 1 14.460057 23.459620 7.399370 0.000000007437931873 0.527207 1500.000000
127 1 16.921783 21.034013 9.703463 0.000000000458832641 0.208313 1500.000000
128 1 9.496051 19.432698 10.311707 0.000000000049715167 0.099310 1500.000000
129 1 13.373873 18.216139 6.552254 0.000000001694191410 0.321972 1500.000000
130 1 15.624223 23.435688 12.856764 0.000000003656137474 0.416075 1500.000000
131 1 15.698817 23.636604 10.535686 0.000000000687699481 0.238395 1500.000000
132 1 11.561785 21.056568 14.500831 0.000000002098059015 0.345756 1500.000000
133 1 15.472152 20.371491 14.154418 0.000000000203489351 0.158859 1500.000000
134 1 15.957398 21.172848 9.988161 0.000000000894498332 0.260230 1500.000000
135 1 11.882291 23.306869 10.693179 0.000000002125929317 0.347281 1500.000000
136 1 17.396315 20.472977 10.034372 0.000000001174489483 0.284958 1500.000000
137 1 11.620511 18.502902 14.241702 0.000000000425475848 0.203137 1500.000000
138 1 11.084023 19.551653 6.595605 0.000000000671549668 0.236514 1500.000000
139 1 12.730930 18.127664 7.861048 0.000000000895078095 0.260286 1500.000000
140 1 19.894680 17.141727 12.022444 0.000000000855373399 0.256379 1500.000000
141 1 15.622825 22.136413 9.064710 0.000000001763904021 0.326329 1500.000000
142 1 16.441018 20.872065 10.474122 0.000000001110065576 0.279649 1500.000000
143 1 10.698268 17.742186 11.994014 0.000000001498863644 0.309090 1500.000000
144 1 8.631140 19.754836 10.137015 0.000000001640382065 0.318527 1500.000000
145 1 17.314312 22.357429 12.743177 0.000000000264459058 0.173361 1500.000000
146 1 20.412854 21.816116 10.438601 0.000000000363770757 0.192800 1500.000000
147 1 14.701478 22.763053 6.802270 0.000000000169167843 0.149372 1500.000000
148 1 14.496488 20.927104 7.377218 0.000000003299680205 0.402088 1500.000000
149 1 15.706208 20.505161 9.064651 0.000000000033343903 0.086930 1500.000000
150 1 18.184142 22.832618 6.855527 0.000000000115163250 0.131402 1500.000000
151 1 15.150654 18.706445 7.503060 0.000000001425700360 0.303977 1500.000000
152 1 16.830476 19.557650 5.812621 0.000000000828954525 0.253712 1500.000000
153 1 16.709967 20.217401 9.203171 0.000000000085502482 0.118985 1500.000000
154 1 15.517718 18.142617 11.280444 0.000000000355848736 0.191390 1500.000000
155 1 21.003376 22.389301 11.113563 0.000000000090865827 0.121422 1500.000000
156 1 17.544616 17.642946 11.667398 0.000000002532905307 0.368160 1500.000000
157 1 19.602013 21.142534 13.706937 0.000000001924221289 0.335930 1500.000000
158 1 13.579715 17.400097 12.908877 0.000000000548835159 0.221129 1500.000000
159 1 8.606758 18.156801 8.180420 0.000000002983553445 0.388814 1500.000000
160 1 17.204949 19.483567 9.849324 0.000000000000059917 0.010569 1500.000000
161 1 13.633720 21.672150 12.506577 0.000000000960381798 0.266468 1500.000000
162 1 14.828303 18.177168 12.123561 0.000000001759713556 0.326070 1500.000000
163 1 14.622023 19.044705 11.815202 0.000000000417648636 0.201884 1500.000000
164 1 16.644880 21.341851 8.769833 0.000000000994374109 0.269576 1500.000000
165 1 16.463723 18.993268 9.746504 0.000000000603072827 0.228185 1500.000000
166 1 10.604188 21.465047 10.505350 0.000000000107572769 0.128449 1500.000000
167 1 9.504827 21.351390 6.335554 0.000000002126262873 0.347299 1500.000000
168 1 19.388023 21.579463 7.728018 0.000000001091566689 0.278087 1500.000000
169 1 10.408843 17.980020 6.496914 0.000000000051477284 0.100470 1500.000000
170 1 18.612044 22.212539 13.596591 0.000000000250751024 0.170312 1500.000000
171 1 9.604266 18.022256 12.915732 0.000000000865517115 0.257389 1500.000000
172 1 17.012433 20.456638 9.884107 0.000000000035168647 0.088488 1500.000000
173 1 11.011960 20.078763 10.842744 0.000000000876475350 0.258470 1500.000000
174 1 13.358733 17.943583 14.796725 0.000000000071164152 0.111923 1500.000000
175 1 16.596324 19.219871 4.822110 0.000000000502805756 0.214765 1500.000000
176 1 11.129812 18.041393 10.879443 0.000000000676315163 0.237072 1500.000000
177 1 12.734842 21.919432 11.104063 0.000000000733573770 0.243582 1500.000000
178 1 21.408489 20.313816 11.362173 0.000000000104072217 0.127041 1500.000000
179 1 14.167234 17.270034 10.453987 0.000000000197157011 0.157194 1500.000000
180 1 15.861048 20.524494 15.679295 0.000000000065039016 0.108615 1500.000000
181 1 20.755236 20.248010 10.836348 0.000000000039521944 0.091998 1500.000000
182 1 10.711619 17.899416 9.152206 0.000000000174775428 0.151005 1500.000000
183 1 12.158894 20.680308 15.022305 0.000000000653110435 0.234329 1500.000000
184 1 15.882633 18.727895 5.225029 0.000000000186565077 0.154327 1500.000000
185 1 19.867961 21.448932 9.549191 0.000000002485493833 0.365849 1500.000000
186 1 14.869918 21.891174 13.973562 0.000000000413162853 0.201158 1500.000000
187 1 14.456836 20.443644 9.979597 0.000000004174311553 0.434870 1500.000000
188 1 16.872029 20.457239 14.556301 0.000000000115277842 0.131446 1500.000000
189 1 16.248527 23.801804 10.057684 0.000000000665940338 0.235854 1500.000000
190 1 11.780942 21.670673 10.358146 0.000000000591693501 0.226741 1500.000000
191 1 11.795532 20.641370 6.415212 0.000000000259443072 0.172258 1500.000000
192 1 14.151134 17.123181 8.104636 0.000000000715965755 0.241617 1500.000000
193 1 8.856559 17.901870 11.460902 0.000000000231323661 0.165795 1500.000000
194 1 10.574728 22.155307 10.895261 0.000000012183759356 0.621476 1500.000000
195 1 17.772786 20.611577 11.768167 0.000000001179754352 0.285383 1500.000000
196 1 20.100573 18.150387 9.815128 0.000000001231124859 0.289466 1500.000000
197 1 13.990331 22.116452 8.571281 0.000000000618083232 0.230063 1500.000000
198 1 9.600360 20.863230 12.983294 0.000000001859849877 0.332142 1500.000000
199 1 11.957134 21.981369 6.529030 0.000000000074020873 0.113401 1500.000000
200 1 17.897751 18.385590 9.335654 0.000000000885315825 0.259336 1500.000000
201 1 22.181986 18.739905 11.090591 0.000000000091271746 0.121603 1500.000000
202 1 13.464292 17.907205 6.559371 0.000000001694191410 0.321972 1500.000000
203 1 11.701209 19.587419 12.491060 0.000000001394896111 0.301771 1500.000000
204 1 13.920742 19.608599 10.482395 0.000000000359231886 0.191995 1500.000000
205 1 10.871539 22.389409 9.947566 0.000000000982729450 0.268519 1500.000000
206 1 20.883841 18.556431 6.675028 0.000000000107928807 0.128591 1500.000000
207 1 19.226827 22.705622 8.276686 0.000000002697688804 0.375977 1500.000000
208 1 13.156483 17.642134 13.104400 0.000000000608676481 0.228890 1500.000000
209 1 16.517843 18.273536 13.959079 0.000000001946379259 0.337215 1500.000000
210 1 15.561932 21.863998 5.269033 0.000000000278317908 0.176337 1500.000000
211 1 12.336892 20.562947 8.144947 0.000000004298890565 0.439153 1500.000000
212 1 11.250304 18.053752 11.476310 0.000000012379035944 0.624779 1500.000000
213 1 13.237346 17.914773 5.563675 0.000000002087820320 0.345193 1500.000000
214 1 22.049810 21.531022 9.915221 0.000000002717606037 0.376900 1500.000000
215 1 15.543525 17.891124 12.765120 0.000000002464477291 0.364815 1500.000000
216 1 17.738773 20.926269 14.441357 0.000000000093909154 0.122763 1500.000000
217 1 16.720560 18.490936 8.389774 0.000000000397236461 0.198540 1500.000000
218 1 19.013972 19.615166 10.901727 0.000000000405157983 0.199851 1500.000000
219 1 19.151366 19.787216 6.925185 0.000000005389100101 0.473518 1500.000000
220 1 12.220884 22.630304 13.321068 0.000000000087421355 0.119868 1500.000000
221 1 18.112815 16.699548 10.736329 0.000000001379821153 0.300680 1500.000000
222 1 18.664753 23.230044 11.078361 0.000000000416548484 0.201706 1500.000000
223 1 18.788067 17.876497 8.564116 0.000000001246375559 0.290657 1500.000000
224 1 12.686553 20.405020 8.927024 0.000000002147187380 0.348434 1500.000000
225 1 16.194391 21.106650 10.100975 0.000000001128115062 0.281157 1500.000000
226 1 14.359124 20.582319 5.328843 0.000000000187651859 0.154626 1500.000000
227 1 20.339597 20.251755 5.913326 0.000000000271932615 0.174978 1500.000000
228 1 14.386952 17.658665 8.708531 0.000000001279770588 0.293230 1500.000000
229 1 17.783347 20.662054 13.844795 0.000000007141571434 0.520110 1500.000000
230 1 16.523624 21.929803 13.762720 0.000000001642907298 0.318690 1500.000000
231 1 9.150197 20.211435 12.758150 0.000000002558064957 0.369375 1500.000000
232 1 10.572417 22.387281 9.106074 0.000000000960700708 0.266498 1500.000000
233 1 14.186200 21.818021 13.418544 0.000000001812444677 0.329295 1500.000000
234 1 15.552505 17.251092 10.076769 0.000000000218785144 0.162743 1500.000000
235 1 18.477555 16.412405 9.566324 0.000000000920254285 0.262704 1500.000000
236 1 7.859805 19.535057 12.254865 0.000000000116964204 0.132083 1500.000000
237 1 11.318770 20.943521 9.303666 0.000000001138011614 0.281977 1500.000000
238 1 18.743224 21.926309 12.465606 0.000000001090629867 0.278008 1500.000000
239 1 9.797780 19.029228 8.949693 0.000000006127560136 0.494227 1500.000000
240 1 8.682257 18.891320 12.924272 0.000000000977077544 0.268004 1500.000000
241 1 12.025803 23.413282 12.033591 0.000000010878460849 0.598439 1500.000000
242 1 12.580251 19.263593 6.152973 0.000000003937029241 0.426469 1500.000000
243 1 13.383396 16.128746 9.798156 0.000000006078146039 0.492895 1500.000000
244 1 12.022591 21.647212 9.626827 0.000000000838745039 0.254707 1500.000000
245 1 18.492477 23.195295 9.009737 0.000000001921081172 0.335747 1500.000000
246 1 8.404620 19.880280 11.323278 0.000000000426527371 0.203304 1500.000000
247 1 16.538547 19.716833 8.426615 0.000000000630984546 0.231653 1500.000000
248 1 19.514441 22.104090 13.557176 0.000000000334793152 0.187538 1500.000000
249 1 17.709948 19.655799 5.201003 0.000000000021388497 0.074971 1500.000000
250 1 12.772250 19.876613 8.362054 0.000000000186500800 0.154309 1500.000000
251 1 11.128820 21.689784 13.745207 0.000000000188974403 0.154988 1500.000000
252 1 11.897135 21.899687 7.423159 0.000000001003665595 0.270413 1500.000000
253 1 9.078927 18.808426 11.259873 0.000000004175357461 0.434906 1500.000000
254 1 16.947298 21.514609 12.607731 0.000000001756170109 0.325851 1500.000000
255 1 13.370598 22.102187 12.020698 0.000000000770013786 0.247550 1500.000000
256 1 12.697430 20.418565 11.154709 0.000000000869023936 0.257736 1500.000000
257 1 18.729460 20.599499 6.183593 0.000000001104693278 0.279197 1500.000000
258 1 22.330809 20.145551 11.439858 0.000000002329846161 0.358047 1500.000000
259 1 13.789779 16.946147 11.293773 0.000000000777500099 0.248350 1500.000000
260 1 16.037444 22.481423 8.816884 0.000000003291704349 0.401764 1500.000000
261 1 10.226354 21.060513 6.129158 0.000000000279648369 0.176618 1500.000000
262 1 20.173412 18.895623 11.048643 0.000000000168811224 0.149267 1500.000000
263 1 12.775204 20.106088 15.436707 0.000000000643768389 0.233207 1500.000000
264 1 14.255097 19.412219 5.001915 0.000000000043595546 0.095056 1500.000000
265 1 11.753639 19.716726 12.882094 0.000000000459610023 0.208430 1500.000000
266 1 14.718977 16.733983 7.338887 0.000000000267300383 0.173979 1500.000000
267 1 13.899597 19.854027 5.984034 0.000000000422068040 0.202593 1500.000000
268 1 19.440581 18.741575 8.220242 0.000000000539921343 0.219925 1500.000000
269 1 12.838018 18.699619 14.602491 0.000000000097227979 0.124192 1500.000000
270 1 21.199970 18.169337 9.061608 0.000000000698153145 0.239597 1500.000000
271 1 11.014829 20.208974 11.729967 0.000000000143863704 0.141519 1500.000000
272 1 18.634419 20.517023 9.042906 0.000000000201029994 0.158216 1500.000000
273 1 19.268761 16.993161 9.320977 0.000000000918820143 0.262568 1500.000000
274 1 19.269207 19.782649 8.755899 0.000000000879303575 0.258748 1500.000000
275 1 15.571732 23.871562 10.781328 0.000000001377425070 0.300506 1500.000000
276 1 15.353603 23.608999 9.171354 0.000000002214678143 0.352047 1500.000000
277 1 20.525762 21.944579 10.431666 0.000000000011121948 0.060287 1500.000000
278 1 21.368424 20.093250 11.006450 0.000000000917304917 0.262423 1500.000000
279 1 21.899660 19.640892 11.514030 0.000000000104011623 0.127016 1500.000000
280 1 14.322234 18.468217 12.583276 0.000000003374236495 0.405094 1500.000000
281 1 19.146585 21.706231 9.984113 0.000000000074614879 0.113703 1500.000000
282 1 19.971211 19.556904 8.359754 0.000000001228071088 0.289227 1500.000000
283 1 14.151317 20.544513 10.144219 0.000000001211858816 0.287949 1500.000000
284 1 12.914231 18.687827 13.444044 0.000000001127463504 0.281103 1500.000000
285 1 9.732272 18.072777 9.931002 0.000000001152563729 0.283173 1500.000000
286 1 20.170647 19.727883 10.707969 0.000000000078238038 0.115515 1500.000000
287 1 16.392916 20.606354 8.724253 0.000000000824419763 0.253249 1500.000000
288 1 11.056364 21.872991 7.260792 0.000000000289860393 0.178742 1500.000000
289 1 16.873197 21.425744 9.760377 0.000000000750139264 0.245402 1500.000000
290 1 14.848191 18.000273 5.059701 0.000000000968279782 0.267197 1500.000000
291 1 16.471352 22.782937 10.782960 0.000000000570646814 0.224020 1500.000000
292 1 21.064248 18.957183 7.684497 0.000000000170885291 0.149876 1500.000000
293 1 15.852926 21.414121 5.322428 0.000000000475066289 0.210741 1500.000000
294 1 19.708901 21.432894 12.964605 0.000000001417942698 0.303424 1500.000000
295 1 16.583493 20.051576 6.230786 0.000000007078983468 0.518586 1500.000000
296 1 15.915536 19.545976 8.023273 0.000000001434120027 0.304574 1500.000000
297 1 15.762516 19.582903 4.461612 0.000000000655764488 0.234646 1500.000000
298 1 14.734608 19.303414 5.313722 0.000000003151242955 0.395966 1500.000000
299 1 17.956379 20.800077 15.112356 0.000000000325074583 0.185706 1500.000000
300 1 10.975788 21.231038 10.312914 0.000000001120217232 0.280499 1500.000000
301 1 8.565425 21.089422 8.620320 0.000000003926635540 0.426093 1500.000000
302 1 18.338727 22.933228 9.934764 0.000000000087997947 0.120131 1500.000000
303 1 20.691935 18.209385 6.896278 0.000000001485873361 0.308194 1500.000000
304 1 19.624548 21.327853 10.933170 0.000000000050384012 0.099754 1500.000000
305 1 15.333999 22.935697 13.701944 0.000000001648811978 0.319071 1500.000000
306 1 13.043957 23.185633 11.865200 0.000000000207961028 0.160014 1500.000000
307 1 18.061641 22.507666 8.250438 0.000000001464806042 0.306731 1500.000000
308 1 15.882099 20.160660 4.363287 0.000000002664632665 0.374435 1500.000000
309 1 13.656509 20.867172 5.772579 0.000000001459762586 0.306378 1500.000000
310 1 14.025891 22.137174 5.926015 0.000000000327690598 0.186202 1500.000000
311 1 20.279960 21.312198 12.974315 0.000000006490580290 0.503801 1500.000000
312 1 16.433703 21.889947 10.155256 0.000000000828201057 0.253635 1500.000000
313 1 16.493014 16.772078 12.680474 0.000000000571431558 0.224123 1500.000000
314 1 18.619085 22.201004 5.971735 0.000000000389135874 0.197181 1500.000000
315 1 13.854086 21.655926 6.223802 0.000000000396153821 0.198359 1500.000000
316 1 10.372673 21.615621 6.433455 0.000000007023899954 0.517238 1500.000000
317 1 14.692102 19.743621 5.128152 0.000000009070265862 0.563254 1500.000000
318 1 20.085467 21.499350 11.274390 0.000000000315593158 0.183882 1500.000000
319 1 17.345013 18.252511 9.961633 0.000000003496368204 0.409924 1500.000000
320 1 7.994130 19.683815 11.244798 0.000000000023109860 0.076930 1500.000000
321 1 12.496730 19.106163 14.657175 0.000000001961657352 0.338095 1500.000000
322 1 15.317391 22.602472 8.463428 0.000000000121934388 0.133928 1500.000000
323 1 18.634559 22.148105 13.099009 0.000000000171943063 0.150185 1500.000000
324 1 9.716260 21.580740 8.150259 0.000000005489032692 0.476427 1500.000000
325 1 14.412656 21.210192 7.088636 0.000000000882531602 0.259064 1500.000000
326 1 12.789634 19.494207 9.781850 0.000000000690778652 0.238750 1500.000000
327 1 22.233050 19.972027 11.724248 0.000000000003111274 0.039429 1500.000000
328 1 21.915094 19.783262 10.336619 0.000000000382727459 0.196092 1500.000000
329 1 10.304615 21.771113 7.171139 0.000000000314498152 0.183669 1500.000000
330 1 9.555212 20.189229 11.362097 0.000000000188116774 0.154753 1500.000000
331 1 16.148169 18.416777 12.712623 0.000000000549280164 0.221188 1500.000000
332 1 16.486707 19.220240 6.488631 0.000000000004366745 0.044145 1500.000000
333 1 18.177772 18.711599 8.767981 0.000000000191234873 0.155604 1500.000000
334 1 11.893015 18.140444 13.874959 0.000000000441190931 0.205608 1500.000000
335 1 13.301621 19.510698 11.342982 0.000000000225164152 0.164310 1500.000000
336 1 12.390173 16.826805 10.058572 0.000000000080586103 0.116659 1500.000000
337 1 15.783094 20.517900 14.085091 0.000000001778474586 0.327225 1500.000000
338 1 12.083732 16.804427 9.131531 0.000000000591603662 0.226729 1500.000000
339 1 18.577044 19.852296 15.351259 0.000000000082068776 0.117370 1500.000000
340 1 16.153622 22.840138 7.869758 0.000000002918258819 0.385957 1500.000000
341 1 13.831849 23.620634 11.608809 0.000000000037846464 0.090679 1500.000000
342 1 21.608220 21.867456 8.697215 0.000000001824237753 0.330008 1500.000000
343 1 20.363657 18.906942 6.108756 0.000000006009120890 0.491022 1500.000000
344 1 11.732062 22.241203 11.273646 0.000000000325815613 0.185847 1500.000000
345 1 17.066010 20.443126 7.718635 0.000000000679125567 0.237400 1500.000000
346 1 9.178941 21.061994 11.379192 0.000000002914847895 0.385806 1500.000000
347 1 12.984733 16.724527 9.422658 0.000000004752831931 0.454097 1500.000000
348 1 20.836507 21.367174 11.245866 0.000000003304645089 0.402290 1500.000000
349 1 16.682283 18.122861 9.442105 0.000000000681344887 0.237658 1500.000000
350 1 18.761497 21.294518 9.863875 0.000000000181451782 0.152904 1500.000000
351 1 15.927825 17.754826 9.023456 0.000000013700834887 0.646269 1500.000000
352 1 14.013430 20.547901 9.285895 0.000000000464785565 0.209210 1500.000000
353 1 16.656668 18.815420 15.097452 0.000000000023783506 0.077671 1500.000000
354 1 13.469961 18.001230 8.516102 0.000000003759661569 0.419966 1500.000000
355 1 18.610821 19.041843 15.051592 0.000000015249810351 0.669760 1500.000000
356 1 17.688569 19.025300 9.841933 0.000000000418746763 0.202060 1500.000000
357 1 9.441210 17.426006 8.259138 0.000000001722621394 0.323763 1500.000000
358 1 12.393838 23.004929 11.156743 0.000000000201354615 0.158301 1500.000000
359 1 19.122375 20.646502 11.140530 0.000000000032055090 0.085795 1500.000000
360 1 9.088537 18.955032 10.730881 0.000000000490366403 0.212979 1500.000000
361 1 10.525412 21.100572 9.538976 0.000000001935706493 0.336597 1500.000000
362 1 13.056812 19.762327 10.155535 0.000000000467500415 0.209616 1500.000000
363 1 13.764094 23.120513 9.635335 0.000000001502043409 0.309308 1500.000000
364 1 9.832257 22.402577 11.942266 0.000000001326468972 0.296754 1500.000000
365 1 15.820118 22.327531 8.457625 0.000000001186847841 0.285954 1500.000000
366 1 12.143871 22.500166 6.036864 0.000000000077596161 0.115198 1500.000000
367 1 19.927599 17.852065 6.872598 0.000000000749501098 0.245332 1500.000000
368 1 22.536048 21.120459 10.753745 0.000000018777053564 0.717860 1500.000000
369 1 15.888277 20.075851 15.450143 0.000000000072440893 0.112588 1500.000000
370 1 19.317115 20.973523 8.459613 0.000000000610683067 0.229141 1500.000000
371 1 17.881936 19.977303 4.653990 0.000000000969400185 0.267300 1500.000000
372 1 10.283193 20.890698 11.504562 0.000000000288407725 0.178443 1500.000000
373 1 16.827088 22.614452 14.077623 0.000000004547118220 0.447448 1500.000000
374 1 11.372484 19.940891 7.987917 0.000000002792280134 0.380321 1500.000000
375 1 18.947311 20.100421 7.576921 0.000000006492648770 0.503854 1500.000000
376 1 14.805951 17.809664 6.720663 0.000000003013702333 0.390119 1500.000000
377 1 10.520483 20.447791 7.324634 0.000000000228708180 0.165168 1500.000000
378 1 12.824308 20.996409 12.272685 0.000000000358823063 0.191922 1500.000000
379 1 11.755872 21.005530 5.244033 0.000000003873419433 0.424159 1500.000000
380 1 14.717831 23.367066 12.119834 0.000000000832245583 0.254047 1500.000000
381 1 14.749183 19.275075 10.287620 0.000000000224901418 0.164246 1500.000000
382 1 12.701834 16.852427 10.685767 0.000000001367903072 0.299812 1500.000000
383 1 18.279500 21.652470 7.887615 0.000000000228473856 0.165111 1500.000000
384 1 14.009338 21.957437 5.842140 0.000000000080237764 0.116490 1500.000000
385 1 17.508853 20.669141 12.534329 0.000000000317902608 0.184330 1500.000000
386 1 15.236345 21.565971 6.688988 0.000000025502211262 0.794981 1500.000000
387 1 10.115089 19.052447 10.888669 0.000000004855569217 0.457345 1500.000000