LAMMPS (27 May 2021)
OMP_NUM_THREADS environment is not set. Defaulting to 1 thread. (src/comm.cpp:98)
  using 1 OpenMP thread(s) per MPI task
#input script for granular ellipsoid simulation
units micro
atom_style sphere

read_data data.grain
Reading data file ...
  orthogonal box = (5.0000000 15.000000 0.0000000) to (25.000000 32.532225 20.000000)
  1 by 1 by 1 MPI processor grid
  reading atoms ...
  10448 atoms
  read_data CPU = 0.013 seconds

#perform constant NVE integration to update velocity and position.
fix 1 all gravity 100.0 chute 24.0

comm_modify vel yes

pair_style gran/hooke 200000.0 70000.0 50.0 30.0 0.5 0 limit_damping
pair_coeff * *

dump		2 all image 1000 image.*.jpg type type #		zoom 1.6 adiam 1.5 body type 1.0 0
#dump_modify    2 pad 5

thermo      100
run		10000
Neighbor list info ...
  update every 1 steps, delay 10 steps, check yes
  max neighbors/atom: 2000, page size: 100000
  master list distance cutoff = 0.927579
  ghost atom cutoff = 0.927579
  binsize = 0.4637895, bins = 44 38 44
  1 neighbor lists, perpetual/occasional/extra = 1 0 0
  (1) pair gran/hooke, perpetual
      attributes: half, newton on, size
      pair build: half/size/bin/newton
      stencil: half/bin/3d
      bin: standard
Per MPI rank memory allocation (min/avg/max) = 5.189 | 5.189 | 5.189 Mbytes
Step Temp E_pair E_mol TotEng Press 
       0            0            0            0            0 0.0033044737 
     100            0            0            0            0 0.0033044737 
     200            0            0            0            0 0.0033044737 
     300            0            0            0            0 0.0033044737 
     400            0            0            0            0 0.0033044737 
     500            0            0            0            0 0.0033044737 
     600            0            0            0            0 0.0033044737 
     700            0            0            0            0 0.0033044737 
     800            0            0            0            0 0.0033044737 
     900            0            0            0            0 0.0033044737 
    1000            0            0            0            0 0.0033044737 
    1100            0            0            0            0 0.0033044737 
    1200            0            0            0            0 0.0033044737 
    1300            0            0            0            0 0.0033044737 
    1400            0            0            0            0 0.0033044737 
    1500            0            0            0            0 0.0033044737 
    1600            0            0            0            0 0.0033044737 
    1700            0            0            0            0 0.0033044737 
    1800            0            0            0            0 0.0033044737 
    1900            0            0            0            0 0.0033044737 
    2000            0            0            0            0 0.0033044737 
    2100            0            0            0            0 0.0033044737 
    2200            0            0            0            0 0.0033044737 
    2300            0            0            0            0 0.0033044737 
    2400            0            0            0            0 0.0033044737 
    2500            0            0            0            0 0.0033044737 
    2600            0            0            0            0 0.0033044737 
    2700            0            0            0            0 0.0033044737 
    2800            0            0            0            0 0.0033044737 
    2900            0            0            0            0 0.0033044737 
    3000            0            0            0            0 0.0033044737 
    3100            0            0            0            0 0.0033044737 
    3200            0            0            0            0 0.0033044737 
    3300            0            0            0            0 0.0033044737 
    3400            0            0            0            0 0.0033044737 
    3500            0            0            0            0 0.0033044737 
    3600            0            0            0            0 0.0033044737 
    3700            0            0            0            0 0.0033044737 
    3800            0            0            0            0 0.0033044737 
    3900            0            0            0            0 0.0033044737 
    4000            0            0            0            0 0.0033044737 
    4100            0            0            0            0 0.0033044737 
    4200            0            0            0            0 0.0033044737 
    4300            0            0            0            0 0.0033044737 
    4400            0            0            0            0 0.0033044737 
    4500            0            0            0            0 0.0033044737 
    4600            0            0            0            0 0.0033044737 
    4700            0            0            0            0 0.0033044737 
    4800            0            0            0            0 0.0033044737 
    4900            0            0            0            0 0.0033044737 
    5000            0            0            0            0 0.0033044737 
    5100            0            0            0            0 0.0033044737 
    5200            0            0            0            0 0.0033044737 
    5300            0            0            0            0 0.0033044737 
    5400            0            0            0            0 0.0033044737 
    5500            0            0            0            0 0.0033044737 
    5600            0            0            0            0 0.0033044737 
    5700            0            0            0            0 0.0033044737 
    5800            0            0            0            0 0.0033044737 
    5900            0            0            0            0 0.0033044737 
    6000            0            0            0            0 0.0033044737 
    6100            0            0            0            0 0.0033044737 
    6200            0            0            0            0 0.0033044737 
    6300            0            0            0            0 0.0033044737 
    6400            0            0            0            0 0.0033044737 
    6500            0            0            0            0 0.0033044737 
    6600            0            0            0            0 0.0033044737 
    6700            0            0            0            0 0.0033044737 
    6800            0            0            0            0 0.0033044737 
    6900            0            0            0            0 0.0033044737 
    7000            0            0            0            0 0.0033044737 
    7100            0            0            0            0 0.0033044737 
    7200            0            0            0            0 0.0033044737 
    7300            0            0            0            0 0.0033044737 
    7400            0            0            0            0 0.0033044737 
    7500            0            0            0            0 0.0033044737 
    7600            0            0            0            0 0.0033044737 
    7700            0            0            0            0 0.0033044737 
    7800            0            0            0            0 0.0033044737 
    7900            0            0            0            0 0.0033044737 
    8000            0            0            0            0 0.0033044737 
    8100            0            0            0            0 0.0033044737 
    8200            0            0            0            0 0.0033044737 
    8300            0            0            0            0 0.0033044737 
    8400            0            0            0            0 0.0033044737 
    8500            0            0            0            0 0.0033044737 
    8600            0            0            0            0 0.0033044737 
    8700            0            0            0            0 0.0033044737 
    8800            0            0            0            0 0.0033044737 
    8900            0            0            0            0 0.0033044737 
    9000            0            0            0            0 0.0033044737 
    9100            0            0            0            0 0.0033044737 
    9200            0            0            0            0 0.0033044737 
    9300            0            0            0            0 0.0033044737 
    9400            0            0            0            0 0.0033044737 
    9500            0            0            0            0 0.0033044737 
    9600            0            0            0            0 0.0033044737 
    9700            0            0            0            0 0.0033044737 
    9800            0            0            0            0 0.0033044737 
    9900            0            0            0            0 0.0033044737 
   10000            0            0            0            0 0.0033044737 
Loop time of 4.40135 on 1 procs for 10000 steps with 10448 atoms

Performance: 392606544251.883 ns/day, 0.000 hours/ns, 2272.029 timesteps/s
100.0% CPU use with 1 MPI tasks x 1 OpenMP threads

MPI task timing breakdown:
Section |  min time  |  avg time  |  max time  |%varavg| %total
---------------------------------------------------------------
Pair    | 3.0723     | 3.0723     | 3.0723     |   0.0 | 69.80
Neigh   | 0          | 0          | 0          |   0.0 |  0.00
Comm    | 0.0055298  | 0.0055298  | 0.0055298  |   0.0 |  0.13
Output  | 0.51166    | 0.51166    | 0.51166    |   0.0 | 11.63
Modify  | 0.4286     | 0.4286     | 0.4286     |   0.0 |  9.74
Other   |            | 0.3833     |            |       |  8.71

Nlocal:        10448.0 ave       10448 max       10448 min
Histogram: 1 0 0 0 0 0 0 0 0 0
Nghost:         0.00000 ave           0 max           0 min
Histogram: 1 0 0 0 0 0 0 0 0 0
Neighs:        14841.0 ave       14841 max       14841 min
Histogram: 1 0 0 0 0 0 0 0 0 0

Total # of neighbors = 14841
Ave neighs/atom = 1.4204632
Neighbor list builds = 0
Dangerous builds = 0

Total wall time: 0:00:04
